version 2
run Fifo1-0-20120216-16:04:43-5974
attr configname Fifo1
attr datetime 20120216-16:04:43
attr experiment Fifo1
attr inifile omnetpp.ini
attr iterationvars ""
attr iterationvars2 $repetition=0
attr measurement ""
attr network FifoNet
attr processid 5974
attr repetition 0
attr replication #0
attr resultdir results
attr runnumber 0
attr seedset 0

vector 0  FifoNet.fifo  qlen:vector  ETV
attr interpolationmode  sample-hold
attr title  "queue length, vector"
vector 1  FifoNet.fifo  queueingTime:vector  ETV
attr interpolationmode  none
attr title  "queueing time at dequeue, vector"
attr unit  s
vector 2  FifoNet.sink  lifetime:vector  ETV
attr interpolationmode  none
attr title  "lifetime of arrived jobs, vector"
attr unit  s
0	0	0	0
1	2	0	0
1	6	0.01	0
1	10	0.02	0
1	14	0.03	0
1	18	0.04	0
1	22	0.05	0
1	26	0.06	0
1	30	0.07	0
1	34	0.08	0
1	38	0.09	0
1	42	0.1	0
1	46	0.11	0
1	50	0.12	0
1	54	0.13	0
1	58	0.14	0
1	62	0.15	0
1	66	0.16	0
1	70	0.17	0
1	74	0.18	0
1	78	0.19	0
1	82	0.2	0
1	86	0.21	0
1	90	0.22	0
1	94	0.23	0
1	98	0.24	0
1	102	0.25	0
1	106	0.26	0
1	110	0.27	0
1	114	0.28	0
1	118	0.29	0
1	122	0.3	0
1	126	0.31	0
1	130	0.32	0
1	134	0.33	0
1	138	0.34	0
1	142	0.35	0
1	146	0.36	0
1	150	0.37	0
1	154	0.38	0
1	158	0.39	0
1	162	0.4	0
1	166	0.41	0
1	170	0.42	0
1	174	0.43	0
1	178	0.44	0
1	182	0.45	0
1	186	0.46	0
1	190	0.47	0
1	194	0.48	0
1	198	0.49	0
1	202	0.5	0
1	206	0.51	0
1	210	0.52	0
1	214	0.53	0
1	218	0.54	0
1	222	0.55	0
1	226	0.56	0
1	230	0.57	0
1	234	0.58	0
1	238	0.59	0
1	242	0.6	0
1	246	0.61	0
1	250	0.62	0
1	254	0.63	0
1	258	0.64	0
1	262	0.65	0
1	266	0.66	0
1	270	0.67	0
1	274	0.68	0
1	278	0.69	0
1	282	0.7	0
1	286	0.71	0
1	290	0.72	0
1	294	0.73	0
1	298	0.74	0
1	302	0.75	0
1	306	0.76	0
1	310	0.77	0
1	314	0.78	0
1	318	0.79	0
1	322	0.8	0
1	326	0.81	0
1	330	0.82	0
1	334	0.83	0
1	338	0.84	0
1	342	0.85	0
1	346	0.86	0
1	350	0.87	0
1	354	0.88	0
1	358	0.89	0
1	362	0.9	0
1	366	0.91	0
1	370	0.92	0
1	374	0.93	0
1	378	0.94	0
1	382	0.95	0
1	386	0.96	0
1	390	0.97	0
1	394	0.98	0
1	398	0.99	0
1	402	1	0
1	406	1.01	0
1	410	1.02	0
1	414	1.03	0
1	418	1.04	0
1	422	1.05	0
1	426	1.06	0
1	430	1.07	0
1	434	1.08	0
1	438	1.09	0
1	442	1.1	0
1	446	1.11	0
1	450	1.12	0
1	454	1.13	0
1	458	1.14	0
1	462	1.15	0
1	466	1.16	0
1	470	1.17	0
1	474	1.18	0
1	478	1.19	0
1	482	1.2	0
1	486	1.21	0
1	490	1.22	0
1	494	1.23	0
1	498	1.24	0
1	502	1.25	0
1	506	1.26	0
1	510	1.27	0
1	514	1.28	0
1	518	1.29	0
1	522	1.3	0
1	526	1.31	0
1	530	1.32	0
1	534	1.33	0
1	538	1.34	0
1	542	1.35	0
1	546	1.36	0
1	550	1.37	0
1	554	1.38	0
1	558	1.39	0
1	562	1.4	0
1	566	1.41	0
1	570	1.42	0
1	574	1.43	0
1	578	1.44	0
1	582	1.45	0
1	586	1.46	0
1	590	1.47	0
1	594	1.48	0
1	598	1.49	0
1	602	1.5	0
1	606	1.51	0
1	610	1.52	0
1	614	1.53	0
1	618	1.54	0
1	622	1.55	0
1	626	1.56	0
1	630	1.57	0
1	634	1.58	0
1	638	1.59	0
1	642	1.6	0
1	646	1.61	0
1	650	1.62	0
1	654	1.63	0
1	658	1.64	0
1	662	1.65	0
1	666	1.66	0
1	670	1.67	0
1	674	1.68	0
1	678	1.69	0
1	682	1.7	0
1	686	1.71	0
1	690	1.72	0
1	694	1.73	0
1	698	1.74	0
1	702	1.75	0
1	706	1.76	0
1	710	1.77	0
1	714	1.78	0
1	718	1.79	0
1	722	1.8	0
1	726	1.81	0
1	730	1.82	0
1	734	1.83	0
1	738	1.84	0
1	742	1.85	0
1	746	1.86	0
1	750	1.87	0
1	754	1.88	0
1	758	1.89	0
1	762	1.9	0
1	766	1.91	0
1	770	1.92	0
1	774	1.93	0
1	778	1.94	0
1	782	1.95	0
1	786	1.96	0
1	790	1.97	0
1	794	1.98	0
1	798	1.99	0
1	802	2	0
1	806	2.01	0
1	810	2.02	0
1	814	2.03	0
1	818	2.04	0
1	822	2.05	0
1	826	2.06	0
1	830	2.07	0
1	834	2.08	0
1	838	2.09	0
1	842	2.1	0
1	846	2.11	0
1	850	2.12	0
1	854	2.13	0
1	858	2.14	0
1	862	2.15	0
1	866	2.16	0
1	870	2.17	0
1	874	2.18	0
1	878	2.19	0
1	882	2.2	0
1	886	2.21	0
1	890	2.22	0
1	894	2.23	0
1	898	2.24	0
1	902	2.25	0
1	906	2.26	0
1	910	2.27	0
1	914	2.28	0
1	918	2.29	0
1	922	2.3	0
1	926	2.31	0
1	930	2.32	0
1	934	2.33	0
1	938	2.34	0
1	942	2.35	0
1	946	2.36	0
1	950	2.37	0
1	954	2.38	0
1	958	2.39	0
1	962	2.4	0
1	966	2.41	0
1	970	2.42	0
1	974	2.43	0
1	978	2.44	0
1	982	2.45	0
1	986	2.46	0
1	990	2.47	0
1	994	2.48	0
1	998	2.49	0
1	1002	2.5	0
1	1006	2.51	0
1	1010	2.52	0
1	1014	2.53	0
1	1018	2.54	0
1	1022	2.55	0
1	1026	2.56	0
1	1030	2.57	0
1	1034	2.58	0
1	1038	2.59	0
1	1042	2.6	0
1	1046	2.61	0
1	1050	2.62	0
1	1054	2.63	0
1	1058	2.64	0
1	1062	2.65	0
1	1066	2.66	0
1	1070	2.67	0
1	1074	2.68	0
1	1078	2.69	0
1	1082	2.7	0
1	1086	2.71	0
1	1090	2.72	0
1	1094	2.73	0
1	1098	2.74	0
1	1102	2.75	0
1	1106	2.76	0
1	1110	2.77	0
1	1114	2.78	0
1	1118	2.79	0
1	1122	2.8	0
1	1126	2.81	0
1	1130	2.82	0
1	1134	2.83	0
1	1138	2.84	0
1	1142	2.85	0
1	1146	2.86	0
1	1150	2.87	0
1	1154	2.88	0
1	1158	2.89	0
1	1162	2.9	0
1	1166	2.91	0
1	1170	2.92	0
1	1174	2.93	0
1	1178	2.94	0
1	1182	2.95	0
1	1186	2.96	0
1	1190	2.97	0
1	1194	2.98	0
1	1198	2.99	0
1	1202	3	0
1	1206	3.01	0
1	1210	3.02	0
1	1214	3.03	0
1	1218	3.04	0
1	1222	3.05	0
1	1226	3.06	0
1	1230	3.07	0
1	1234	3.08	0
1	1238	3.09	0
1	1242	3.1	0
1	1246	3.11	0
1	1250	3.12	0
1	1254	3.13	0
1	1258	3.14	0
1	1262	3.15	0
1	1266	3.16	0
1	1270	3.17	0
1	1274	3.18	0
1	1278	3.19	0
1	1282	3.2	0
1	1286	3.21	0
1	1290	3.22	0
1	1294	3.23	0
1	1298	3.24	0
1	1302	3.25	0
1	1306	3.26	0
1	1310	3.27	0
1	1314	3.28	0
1	1318	3.29	0
1	1322	3.3	0
1	1326	3.31	0
1	1330	3.32	0
1	1334	3.33	0
1	1338	3.34	0
1	1342	3.35	0
1	1346	3.36	0
1	1350	3.37	0
1	1354	3.38	0
1	1358	3.39	0
1	1362	3.4	0
1	1366	3.41	0
1	1370	3.42	0
1	1374	3.43	0
1	1378	3.44	0
1	1382	3.45	0
1	1386	3.46	0
1	1390	3.47	0
1	1394	3.48	0
1	1398	3.49	0
1	1402	3.5	0
1	1406	3.51	0
1	1410	3.52	0
1	1414	3.53	0
1	1418	3.54	0
1	1422	3.55	0
1	1426	3.56	0
1	1430	3.57	0
1	1434	3.58	0
1	1438	3.59	0
1	1442	3.6	0
1	1446	3.61	0
1	1450	3.62	0
1	1454	3.63	0
1	1458	3.64	0
1	1462	3.65	0
1	1466	3.66	0
1	1470	3.67	0
1	1474	3.68	0
1	1478	3.69	0
1	1482	3.7	0
1	1486	3.71	0
1	1490	3.72	0
1	1494	3.73	0
1	1498	3.74	0
1	1502	3.75	0
1	1506	3.76	0
1	1510	3.77	0
1	1514	3.78	0
1	1518	3.79	0
1	1522	3.8	0
1	1526	3.81	0
1	1530	3.82	0
1	1534	3.83	0
1	1538	3.84	0
1	1542	3.85	0
1	1546	3.86	0
1	1550	3.87	0
1	1554	3.88	0
1	1558	3.89	0
1	1562	3.9	0
1	1566	3.91	0
1	1570	3.92	0
1	1574	3.93	0
1	1578	3.94	0
1	1582	3.95	0
1	1586	3.96	0
1	1590	3.97	0
1	1594	3.98	0
1	1598	3.99	0
1	1602	4	0
1	1606	4.01	0
1	1610	4.02	0
1	1614	4.03	0
1	1618	4.04	0
1	1622	4.05	0
1	1626	4.06	0
1	1630	4.07	0
1	1634	4.08	0
1	1638	4.09	0
1	1642	4.1	0
1	1646	4.11	0
1	1650	4.12	0
1	1654	4.13	0
1	1658	4.14	0
1	1662	4.15	0
1	1666	4.16	0
1	1670	4.17	0
1	1674	4.18	0
1	1678	4.19	0
1	1682	4.2	0
1	1686	4.21	0
1	1690	4.22	0
1	1694	4.23	0
1	1698	4.24	0
1	1702	4.25	0
1	1706	4.26	0
1	1710	4.27	0
1	1714	4.28	0
1	1718	4.29	0
1	1722	4.3	0
1	1726	4.31	0
1	1730	4.32	0
1	1734	4.33	0
1	1738	4.34	0
1	1742	4.35	0
1	1746	4.36	0
1	1750	4.37	0
1	1754	4.38	0
1	1758	4.39	0
1	1762	4.4	0
1	1766	4.41	0
1	1770	4.42	0
1	1774	4.43	0
1	1778	4.44	0
1	1782	4.45	0
1	1786	4.46	0
1	1790	4.47	0
1	1794	4.48	0
1	1798	4.49	0
1	1802	4.5	0
1	1806	4.51	0
1	1810	4.52	0
1	1814	4.53	0
1	1818	4.54	0
1	1822	4.55	0
1	1826	4.56	0
1	1830	4.57	0
1	1834	4.58	0
1	1838	4.59	0
1	1842	4.6	0
1	1846	4.61	0
1	1850	4.62	0
1	1854	4.63	0
1	1858	4.64	0
1	1862	4.65	0
1	1866	4.66	0
1	1870	4.67	0
1	1874	4.68	0
1	1878	4.69	0
1	1882	4.7	0
1	1886	4.71	0
1	1890	4.72	0
1	1894	4.73	0
1	1898	4.74	0
1	1902	4.75	0
1	1906	4.76	0
1	1910	4.77	0
1	1914	4.78	0
1	1918	4.79	0
1	1922	4.8	0
1	1926	4.81	0
1	1930	4.82	0
1	1934	4.83	0
1	1938	4.84	0
1	1942	4.85	0
1	1946	4.86	0
1	1950	4.87	0
1	1954	4.88	0
1	1958	4.89	0
1	1962	4.9	0
1	1966	4.91	0
1	1970	4.92	0
1	1974	4.93	0
1	1978	4.94	0
1	1982	4.95	0
1	1986	4.96	0
1	1990	4.97	0
1	1994	4.98	0
1	1998	4.99	0
1	2002	5	0
1	2006	5.01	0
1	2010	5.02	0
1	2014	5.03	0
1	2018	5.04	0
1	2022	5.05	0
1	2026	5.06	0
1	2030	5.07	0
1	2034	5.08	0
1	2038	5.09	0
1	2042	5.1	0
1	2046	5.11	0
1	2050	5.12	0
1	2054	5.13	0
1	2058	5.14	0
1	2062	5.15	0
1	2066	5.16	0
1	2070	5.17	0
1	2074	5.18	0
1	2078	5.19	0
1	2082	5.2	0
1	2086	5.21	0
1	2090	5.22	0
1	2094	5.23	0
1	2098	5.24	0
1	2102	5.25	0
1	2106	5.26	0
1	2110	5.27	0
1	2114	5.28	0
1	2118	5.29	0
1	2122	5.3	0
1	2126	5.31	0
1	2130	5.32	0
1	2134	5.33	0
1	2138	5.34	0
1	2142	5.35	0
1	2146	5.36	0
1	2150	5.37	0
1	2154	5.38	0
1	2158	5.39	0
1	2162	5.4	0
1	2166	5.41	0
1	2170	5.42	0
1	2174	5.43	0
1	2178	5.44	0
1	2182	5.45	0
1	2186	5.46	0
1	2190	5.47	0
1	2194	5.48	0
1	2198	5.49	0
1	2202	5.5	0
1	2206	5.51	0
1	2210	5.52	0
1	2214	5.53	0
1	2218	5.54	0
1	2222	5.55	0
1	2226	5.56	0
1	2230	5.57	0
1	2234	5.58	0
1	2238	5.59	0
1	2242	5.6	0
1	2246	5.61	0
1	2250	5.62	0
1	2254	5.63	0
1	2258	5.64	0
1	2262	5.65	0
1	2266	5.66	0
1	2270	5.67	0
1	2274	5.68	0
1	2278	5.69	0
1	2282	5.7	0
1	2286	5.71	0
1	2290	5.72	0
1	2294	5.73	0
1	2298	5.74	0
1	2302	5.75	0
1	2306	5.76	0
1	2310	5.77	0
1	2314	5.78	0
1	2318	5.79	0
1	2322	5.8	0
1	2326	5.81	0
1	2330	5.82	0
1	2334	5.83	0
1	2338	5.84	0
1	2342	5.85	0
1	2346	5.86	0
1	2350	5.87	0
1	2354	5.88	0
1	2358	5.89	0
1	2362	5.9	0
1	2366	5.91	0
1	2370	5.92	0
1	2374	5.93	0
1	2378	5.94	0
1	2382	5.95	0
1	2386	5.96	0
1	2390	5.97	0
1	2394	5.98	0
1	2398	5.99	0
1	2402	6	0
1	2406	6.01	0
1	2410	6.02	0
1	2414	6.03	0
1	2418	6.04	0
1	2422	6.05	0
1	2426	6.06	0
1	2430	6.07	0
1	2434	6.08	0
1	2438	6.09	0
1	2442	6.1	0
1	2446	6.11	0
1	2450	6.12	0
1	2454	6.13	0
1	2458	6.14	0
1	2462	6.15	0
1	2466	6.16	0
1	2470	6.17	0
1	2474	6.18	0
1	2478	6.19	0
1	2482	6.2	0
1	2486	6.21	0
1	2490	6.22	0
1	2494	6.23	0
1	2498	6.24	0
1	2502	6.25	0
1	2506	6.26	0
1	2510	6.27	0
1	2514	6.28	0
1	2518	6.29	0
1	2522	6.3	0
1	2526	6.31	0
1	2530	6.32	0
1	2534	6.33	0
1	2538	6.34	0
1	2542	6.35	0
1	2546	6.36	0
1	2550	6.37	0
1	2554	6.38	0
1	2558	6.39	0
1	2562	6.4	0
1	2566	6.41	0
1	2570	6.42	0
1	2574	6.43	0
1	2578	6.44	0
1	2582	6.45	0
1	2586	6.46	0
1	2590	6.47	0
1	2594	6.48	0
1	2598	6.49	0
1	2602	6.5	0
1	2606	6.51	0
1	2610	6.52	0
1	2614	6.53	0
1	2618	6.54	0
1	2622	6.55	0
1	2626	6.56	0
1	2630	6.57	0
1	2634	6.58	0
1	2638	6.59	0
1	2642	6.6	0
1	2646	6.61	0
1	2650	6.62	0
1	2654	6.63	0
1	2658	6.64	0
1	2662	6.65	0
1	2666	6.66	0
1	2670	6.67	0
1	2674	6.68	0
1	2678	6.69	0
1	2682	6.7	0
1	2686	6.71	0
1	2690	6.72	0
1	2694	6.73	0
1	2698	6.74	0
1	2702	6.75	0
1	2706	6.76	0
1	2710	6.77	0
1	2714	6.78	0
1	2718	6.79	0
1	2722	6.8	0
1	2726	6.81	0
1	2730	6.82	0
1	2734	6.83	0
1	2738	6.84	0
1	2742	6.85	0
1	2746	6.86	0
1	2750	6.87	0
1	2754	6.88	0
1	2758	6.89	0
1	2762	6.9	0
1	2766	6.91	0
1	2770	6.92	0
1	2774	6.93	0
1	2778	6.94	0
1	2782	6.95	0
1	2786	6.96	0
1	2790	6.97	0
1	2794	6.98	0
1	2798	6.99	0
1	2802	7	0
1	2806	7.01	0
1	2810	7.02	0
1	2814	7.03	0
1	2818	7.04	0
1	2822	7.05	0
1	2826	7.06	0
1	2830	7.07	0
1	2834	7.08	0
1	2838	7.09	0
1	2842	7.1	0
1	2846	7.11	0
1	2850	7.12	0
1	2854	7.13	0
1	2858	7.14	0
1	2862	7.15	0
1	2866	7.16	0
1	2870	7.17	0
1	2874	7.18	0
1	2878	7.19	0
1	2882	7.2	0
1	2886	7.21	0
1	2890	7.22	0
1	2894	7.23	0
1	2898	7.24	0
1	2902	7.25	0
1	2906	7.26	0
1	2910	7.27	0
1	2914	7.28	0
1	2918	7.29	0
1	2922	7.3	0
1	2926	7.31	0
1	2930	7.32	0
1	2934	7.33	0
1	2938	7.34	0
1	2942	7.35	0
1	2946	7.36	0
1	2950	7.37	0
1	2954	7.38	0
1	2958	7.39	0
1	2962	7.4	0
1	2966	7.41	0
1	2970	7.42	0
1	2974	7.43	0
1	2978	7.44	0
1	2982	7.45	0
1	2986	7.46	0
1	2990	7.47	0
1	2994	7.48	0
1	2998	7.49	0
1	3002	7.5	0
1	3006	7.51	0
1	3010	7.52	0
1	3014	7.53	0
1	3018	7.54	0
1	3022	7.55	0
1	3026	7.56	0
1	3030	7.57	0
1	3034	7.58	0
1	3038	7.59	0
1	3042	7.6	0
1	3046	7.61	0
1	3050	7.62	0
1	3054	7.63	0
1	3058	7.64	0
1	3062	7.65	0
1	3066	7.66	0
1	3070	7.67	0
1	3074	7.68	0
1	3078	7.69	0
1	3082	7.7	0
1	3086	7.71	0
1	3090	7.72	0
1	3094	7.73	0
1	3098	7.74	0
1	3102	7.75	0
1	3106	7.76	0
1	3110	7.77	0
1	3114	7.78	0
1	3118	7.79	0
1	3122	7.8	0
1	3126	7.81	0
1	3130	7.82	0
1	3134	7.83	0
1	3138	7.84	0
1	3142	7.85	0
1	3146	7.86	0
1	3150	7.87	0
1	3154	7.88	0
1	3158	7.89	0
1	3162	7.9	0
1	3166	7.91	0
1	3170	7.92	0
1	3174	7.93	0
1	3178	7.94	0
1	3182	7.95	0
1	3186	7.96	0
1	3190	7.97	0
1	3194	7.98	0
1	3198	7.99	0
1	3202	8	0
1	3206	8.01	0
1	3210	8.02	0
1	3214	8.03	0
1	3218	8.04	0
1	3222	8.05	0
1	3226	8.06	0
1	3230	8.07	0
1	3234	8.08	0
1	3238	8.09	0
1	3242	8.1	0
1	3246	8.11	0
1	3250	8.12	0
1	3254	8.13	0
1	3258	8.14	0
1	3262	8.15	0
1	3266	8.16	0
1	3270	8.17	0
1	3274	8.18	0
1	3278	8.19	0
1	3282	8.2	0
1	3286	8.21	0
1	3290	8.22	0
1	3294	8.23	0
1	3298	8.24	0
1	3302	8.25	0
1	3306	8.26	0
1	3310	8.27	0
1	3314	8.28	0
1	3318	8.29	0
1	3322	8.3	0
1	3326	8.31	0
1	3330	8.32	0
1	3334	8.33	0
1	3338	8.34	0
1	3342	8.35	0
1	3346	8.36	0
1	3350	8.37	0
1	3354	8.38	0
1	3358	8.39	0
1	3362	8.4	0
1	3366	8.41	0
1	3370	8.42	0
1	3374	8.43	0
1	3378	8.44	0
1	3382	8.45	0
1	3386	8.46	0
1	3390	8.47	0
1	3394	8.48	0
1	3398	8.49	0
1	3402	8.5	0
1	3406	8.51	0
1	3410	8.52	0
1	3414	8.53	0
1	3418	8.54	0
1	3422	8.55	0
1	3426	8.56	0
1	3430	8.57	0
1	3434	8.58	0
1	3438	8.59	0
1	3442	8.6	0
1	3446	8.61	0
1	3450	8.62	0
1	3454	8.63	0
1	3458	8.64	0
1	3462	8.65	0
1	3466	8.66	0
1	3470	8.67	0
1	3474	8.68	0
1	3478	8.69	0
1	3482	8.7	0
1	3486	8.71	0
1	3490	8.72	0
1	3494	8.73	0
1	3498	8.74	0
1	3502	8.75	0
1	3506	8.76	0
1	3510	8.77	0
1	3514	8.78	0
1	3518	8.79	0
1	3522	8.8	0
1	3526	8.81	0
1	3530	8.82	0
1	3534	8.83	0
1	3538	8.84	0
1	3542	8.85	0
1	3546	8.86	0
1	3550	8.87	0
1	3554	8.88	0
1	3558	8.89	0
1	3562	8.9	0
1	3566	8.91	0
1	3570	8.92	0
1	3574	8.93	0
1	3578	8.94	0
1	3582	8.95	0
1	3586	8.96	0
1	3590	8.97	0
1	3594	8.98	0
1	3598	8.99	0
1	3602	9	0
1	3606	9.01	0
1	3610	9.02	0
1	3614	9.03	0
1	3618	9.04	0
1	3622	9.05	0
1	3626	9.06	0
1	3630	9.07	0
1	3634	9.08	0
1	3638	9.09	0
1	3642	9.1	0
1	3646	9.11	0
1	3650	9.12	0
1	3654	9.13	0
1	3658	9.14	0
1	3662	9.15	0
1	3666	9.16	0
1	3670	9.17	0
1	3674	9.18	0
1	3678	9.19	0
1	3682	9.2	0
1	3686	9.21	0
1	3690	9.22	0
1	3694	9.23	0
1	3698	9.24	0
1	3702	9.25	0
1	3706	9.26	0
1	3710	9.27	0
1	3714	9.28	0
1	3718	9.29	0
1	3722	9.3	0
1	3726	9.31	0
1	3730	9.32	0
1	3734	9.33	0
1	3738	9.34	0
1	3742	9.35	0
1	3746	9.36	0
1	3750	9.37	0
1	3754	9.38	0
1	3758	9.39	0
1	3762	9.4	0
1	3766	9.41	0
1	3770	9.42	0
1	3774	9.43	0
1	3778	9.44	0
1	3782	9.45	0
1	3786	9.46	0
1	3790	9.47	0
1	3794	9.48	0
1	3798	9.49	0
1	3802	9.5	0
1	3806	9.51	0
1	3810	9.52	0
1	3814	9.53	0
1	3818	9.54	0
1	3822	9.55	0
1	3826	9.56	0
1	3830	9.57	0
1	3834	9.58	0
1	3838	9.59	0
1	3842	9.6	0
1	3846	9.61	0
1	3850	9.62	0
1	3854	9.63	0
1	3858	9.64	0
1	3862	9.65	0
1	3866	9.66	0
1	3870	9.67	0
1	3874	9.68	0
1	3878	9.69	0
1	3882	9.7	0
1	3886	9.71	0
1	3890	9.72	0
1	3894	9.73	0
1	3898	9.74	0
1	3902	9.75	0
1	3906	9.76	0
1	3910	9.77	0
1	3914	9.78	0
1	3918	9.79	0
1	3922	9.8	0
1	3926	9.81	0
1	3930	9.82	0
1	3934	9.83	0
1	3938	9.84	0
1	3942	9.85	0
1	3946	9.86	0
1	3950	9.87	0
1	3954	9.88	0
1	3958	9.89	0
1	3962	9.9	0
1	3966	9.91	0
1	3970	9.92	0
1	3974	9.93	0
1	3978	9.94	0
1	3982	9.95	0
1	3986	9.96	0
1	3990	9.97	0
1	3994	9.98	0
1	3998	9.99	0
1	4002	10	0
1	4006	10.01	0
1	4010	10.02	0
1	4014	10.03	0
1	4018	10.04	0
1	4022	10.05	0
1	4026	10.06	0
1	4030	10.07	0
1	4034	10.08	0
1	4038	10.09	0
1	4042	10.1	0
1	4046	10.11	0
1	4050	10.12	0
1	4054	10.13	0
1	4058	10.14	0
1	4062	10.15	0
1	4066	10.16	0
1	4070	10.17	0
1	4074	10.18	0
1	4078	10.19	0
1	4082	10.2	0
1	4086	10.21	0
1	4090	10.22	0
1	4094	10.23	0
1	4098	10.24	0
1	4102	10.25	0
1	4106	10.26	0
1	4110	10.27	0
1	4114	10.28	0
1	4118	10.29	0
1	4122	10.3	0
1	4126	10.31	0
1	4130	10.32	0
1	4134	10.33	0
1	4138	10.34	0
1	4142	10.35	0
1	4146	10.36	0
1	4150	10.37	0
1	4154	10.38	0
1	4158	10.39	0
1	4162	10.4	0
1	4166	10.41	0
1	4170	10.42	0
1	4174	10.43	0
1	4178	10.44	0
1	4182	10.45	0
1	4186	10.46	0
1	4190	10.47	0
1	4194	10.48	0
1	4198	10.49	0
1	4202	10.5	0
1	4206	10.51	0
1	4210	10.52	0
1	4214	10.53	0
1	4218	10.54	0
1	4222	10.55	0
1	4226	10.56	0
1	4230	10.57	0
1	4234	10.58	0
1	4238	10.59	0
1	4242	10.6	0
1	4246	10.61	0
1	4250	10.62	0
1	4254	10.63	0
1	4258	10.64	0
1	4262	10.65	0
1	4266	10.66	0
1	4270	10.67	0
1	4274	10.68	0
1	4278	10.69	0
1	4282	10.7	0
1	4286	10.71	0
1	4290	10.72	0
1	4294	10.73	0
1	4298	10.74	0
1	4302	10.75	0
1	4306	10.76	0
1	4310	10.77	0
1	4314	10.78	0
1	4318	10.79	0
1	4322	10.8	0
1	4326	10.81	0
1	4330	10.82	0
1	4334	10.83	0
1	4338	10.84	0
1	4342	10.85	0
1	4346	10.86	0
1	4350	10.87	0
1	4354	10.88	0
1	4358	10.89	0
1	4362	10.9	0
1	4366	10.91	0
1	4370	10.92	0
1	4374	10.93	0
1	4378	10.94	0
1	4382	10.95	0
1	4386	10.96	0
1	4390	10.97	0
1	4394	10.98	0
1	4398	10.99	0
1	4402	11	0
1	4406	11.01	0
1	4410	11.02	0
1	4414	11.03	0
1	4418	11.04	0
1	4422	11.05	0
1	4426	11.06	0
1	4430	11.07	0
1	4434	11.08	0
1	4438	11.09	0
1	4442	11.1	0
1	4446	11.11	0
1	4450	11.12	0
1	4454	11.13	0
1	4458	11.14	0
1	4462	11.15	0
1	4466	11.16	0
1	4470	11.17	0
1	4474	11.18	0
1	4478	11.19	0
1	4482	11.2	0
1	4486	11.21	0
1	4490	11.22	0
1	4494	11.23	0
1	4498	11.24	0
1	4502	11.25	0
1	4506	11.26	0
1	4510	11.27	0
1	4514	11.28	0
1	4518	11.29	0
1	4522	11.3	0
1	4526	11.31	0
1	4530	11.32	0
1	4534	11.33	0
1	4538	11.34	0
1	4542	11.35	0
1	4546	11.36	0
1	4550	11.37	0
1	4554	11.38	0
1	4558	11.39	0
1	4562	11.4	0
1	4566	11.41	0
1	4570	11.42	0
1	4574	11.43	0
1	4578	11.44	0
1	4582	11.45	0
1	4586	11.46	0
1	4590	11.47	0
1	4594	11.48	0
1	4598	11.49	0
1	4602	11.5	0
1	4606	11.51	0
1	4610	11.52	0
1	4614	11.53	0
1	4618	11.54	0
1	4622	11.55	0
1	4626	11.56	0
1	4630	11.57	0
1	4634	11.58	0
1	4638	11.59	0
1	4642	11.6	0
1	4646	11.61	0
1	4650	11.62	0
1	4654	11.63	0
1	4658	11.64	0
1	4662	11.65	0
1	4666	11.66	0
1	4670	11.67	0
1	4674	11.68	0
1	4678	11.69	0
1	4682	11.7	0
1	4686	11.71	0
1	4690	11.72	0
1	4694	11.73	0
1	4698	11.74	0
1	4702	11.75	0
1	4706	11.76	0
1	4710	11.77	0
1	4714	11.78	0
1	4718	11.79	0
1	4722	11.8	0
1	4726	11.81	0
1	4730	11.82	0
1	4734	11.83	0
1	4738	11.84	0
1	4742	11.85	0
1	4746	11.86	0
1	4750	11.87	0
1	4754	11.88	0
1	4758	11.89	0
1	4762	11.9	0
1	4766	11.91	0
1	4770	11.92	0
1	4774	11.93	0
1	4778	11.94	0
1	4782	11.95	0
1	4786	11.96	0
1	4790	11.97	0
1	4794	11.98	0
1	4798	11.99	0
1	4802	12	0
1	4806	12.01	0
1	4810	12.02	0
1	4814	12.03	0
1	4818	12.04	0
1	4822	12.05	0
1	4826	12.06	0
1	4830	12.07	0
1	4834	12.08	0
1	4838	12.09	0
1	4842	12.1	0
1	4846	12.11	0
1	4850	12.12	0
1	4854	12.13	0
1	4858	12.14	0
1	4862	12.15	0
1	4866	12.16	0
1	4870	12.17	0
1	4874	12.18	0
1	4878	12.19	0
1	4882	12.2	0
1	4886	12.21	0
1	4890	12.22	0
1	4894	12.23	0
1	4898	12.24	0
1	4902	12.25	0
1	4906	12.26	0
1	4910	12.27	0
1	4914	12.28	0
1	4918	12.29	0
1	4922	12.3	0
1	4926	12.31	0
1	4930	12.32	0
1	4934	12.33	0
1	4938	12.34	0
1	4942	12.35	0
1	4946	12.36	0
1	4950	12.37	0
1	4954	12.38	0
1	4958	12.39	0
1	4962	12.4	0
1	4966	12.41	0
1	4970	12.42	0
1	4974	12.43	0
1	4978	12.44	0
1	4982	12.45	0
1	4986	12.46	0
1	4990	12.47	0
1	4994	12.48	0
1	4998	12.49	0
1	5002	12.5	0
1	5006	12.51	0
1	5010	12.52	0
1	5014	12.53	0
1	5018	12.54	0
1	5022	12.55	0
1	5026	12.56	0
1	5030	12.57	0
1	5034	12.58	0
1	5038	12.59	0
1	5042	12.6	0
1	5046	12.61	0
1	5050	12.62	0
1	5054	12.63	0
1	5058	12.64	0
1	5062	12.65	0
1	5066	12.66	0
1	5070	12.67	0
1	5074	12.68	0
1	5078	12.69	0
1	5082	12.7	0
1	5086	12.71	0
1	5090	12.72	0
1	5094	12.73	0
1	5098	12.74	0
1	5102	12.75	0
1	5106	12.76	0
1	5110	12.77	0
1	5114	12.78	0
1	5118	12.79	0
1	5122	12.8	0
1	5126	12.81	0
1	5130	12.82	0
1	5134	12.83	0
1	5138	12.84	0
1	5142	12.85	0
1	5146	12.86	0
1	5150	12.87	0
1	5154	12.88	0
1	5158	12.89	0
1	5162	12.9	0
1	5166	12.91	0
1	5170	12.92	0
1	5174	12.93	0
1	5178	12.94	0
1	5182	12.95	0
1	5186	12.96	0
1	5190	12.97	0
1	5194	12.98	0
1	5198	12.99	0
1	5202	13	0
1	5206	13.01	0
1	5210	13.02	0
1	5214	13.03	0
1	5218	13.04	0
1	5222	13.05	0
1	5226	13.06	0
1	5230	13.07	0
1	5234	13.08	0
1	5238	13.09	0
1	5242	13.1	0
1	5246	13.11	0
1	5250	13.12	0
1	5254	13.13	0
1	5258	13.14	0
1	5262	13.15	0
1	5266	13.16	0
1	5270	13.17	0
1	5274	13.18	0
1	5278	13.19	0
1	5282	13.2	0
1	5286	13.21	0
1	5290	13.22	0
1	5294	13.23	0
1	5298	13.24	0
1	5302	13.25	0
1	5306	13.26	0
1	5310	13.27	0
1	5314	13.28	0
1	5318	13.29	0
1	5322	13.3	0
1	5326	13.31	0
1	5330	13.32	0
1	5334	13.33	0
1	5338	13.34	0
1	5342	13.35	0
1	5346	13.36	0
1	5350	13.37	0
1	5354	13.38	0
1	5358	13.39	0
1	5362	13.4	0
1	5366	13.41	0
1	5370	13.42	0
1	5374	13.43	0
1	5378	13.44	0
1	5382	13.45	0
1	5386	13.46	0
1	5390	13.47	0
1	5394	13.48	0
1	5398	13.49	0
1	5402	13.5	0
1	5406	13.51	0
1	5410	13.52	0
1	5414	13.53	0
1	5418	13.54	0
1	5422	13.55	0
1	5426	13.56	0
1	5430	13.57	0
1	5434	13.58	0
1	5438	13.59	0
1	5442	13.6	0
1	5446	13.61	0
1	5450	13.62	0
1	5454	13.63	0
1	5458	13.64	0
1	5462	13.65	0
1	5466	13.66	0
1	5470	13.67	0
1	5474	13.68	0
1	5478	13.69	0
1	5482	13.7	0
1	5486	13.71	0
1	5490	13.72	0
1	5494	13.73	0
1	5498	13.74	0
1	5502	13.75	0
1	5506	13.76	0
1	5510	13.77	0
1	5514	13.78	0
1	5518	13.79	0
1	5522	13.8	0
1	5526	13.81	0
1	5530	13.82	0
1	5534	13.83	0
1	5538	13.84	0
1	5542	13.85	0
1	5546	13.86	0
1	5550	13.87	0
1	5554	13.88	0
1	5558	13.89	0
1	5562	13.9	0
1	5566	13.91	0
1	5570	13.92	0
1	5574	13.93	0
1	5578	13.94	0
1	5582	13.95	0
1	5586	13.96	0
1	5590	13.97	0
1	5594	13.98	0
1	5598	13.99	0
1	5602	14	0
1	5606	14.01	0
1	5610	14.02	0
1	5614	14.03	0
1	5618	14.04	0
1	5622	14.05	0
1	5626	14.06	0
1	5630	14.07	0
1	5634	14.08	0
1	5638	14.09	0
1	5642	14.1	0
1	5646	14.11	0
1	5650	14.12	0
1	5654	14.13	0
1	5658	14.14	0
1	5662	14.15	0
1	5666	14.16	0
1	5670	14.17	0
1	5674	14.18	0
1	5678	14.19	0
1	5682	14.2	0
1	5686	14.21	0
1	5690	14.22	0
1	5694	14.23	0
1	5698	14.24	0
1	5702	14.25	0
1	5706	14.26	0
1	5710	14.27	0
1	5714	14.28	0
1	5718	14.29	0
1	5722	14.3	0
1	5726	14.31	0
1	5730	14.32	0
1	5734	14.33	0
1	5738	14.34	0
1	5742	14.35	0
1	5746	14.36	0
1	5750	14.37	0
1	5754	14.38	0
1	5758	14.39	0
1	5762	14.4	0
1	5766	14.41	0
1	5770	14.42	0
1	5774	14.43	0
1	5778	14.44	0
1	5782	14.45	0
1	5786	14.46	0
1	5790	14.47	0
1	5794	14.48	0
1	5798	14.49	0
1	5802	14.5	0
1	5806	14.51	0
1	5810	14.52	0
1	5814	14.53	0
1	5818	14.54	0
1	5822	14.55	0
1	5826	14.56	0
1	5830	14.57	0
1	5834	14.58	0
1	5838	14.59	0
1	5842	14.6	0
1	5846	14.61	0
1	5850	14.62	0
1	5854	14.63	0
1	5858	14.64	0
1	5862	14.65	0
1	5866	14.66	0
1	5870	14.67	0
1	5874	14.68	0
1	5878	14.69	0
1	5882	14.7	0
1	5886	14.71	0
1	5890	14.72	0
1	5894	14.73	0
1	5898	14.74	0
1	5902	14.75	0
1	5906	14.76	0
1	5910	14.77	0
1	5914	14.78	0
1	5918	14.79	0
1	5922	14.8	0
1	5926	14.81	0
1	5930	14.82	0
1	5934	14.83	0
1	5938	14.84	0
1	5942	14.85	0
1	5946	14.86	0
1	5950	14.87	0
1	5954	14.88	0
1	5958	14.89	0
1	5962	14.9	0
1	5966	14.91	0
1	5970	14.92	0
1	5974	14.93	0
1	5978	14.94	0
1	5982	14.95	0
1	5986	14.96	0
1	5990	14.97	0
1	5994	14.98	0
1	5998	14.99	0
1	6002	15	0
1	6006	15.01	0
1	6010	15.02	0
1	6014	15.03	0
1	6018	15.04	0
1	6022	15.05	0
1	6026	15.06	0
1	6030	15.07	0
1	6034	15.08	0
1	6038	15.09	0
1	6042	15.1	0
1	6046	15.11	0
1	6050	15.12	0
1	6054	15.13	0
1	6058	15.14	0
1	6062	15.15	0
1	6066	15.16	0
1	6070	15.17	0
1	6074	15.18	0
1	6078	15.19	0
1	6082	15.2	0
1	6086	15.21	0
1	6090	15.22	0
1	6094	15.23	0
1	6098	15.24	0
1	6102	15.25	0
1	6106	15.26	0
1	6110	15.27	0
1	6114	15.28	0
1	6118	15.29	0
1	6122	15.3	0
1	6126	15.31	0
1	6130	15.32	0
1	6134	15.33	0
1	6138	15.34	0
1	6142	15.35	0
1	6146	15.36	0
1	6150	15.37	0
1	6154	15.38	0
1	6158	15.39	0
1	6162	15.4	0
1	6166	15.41	0
1	6170	15.42	0
1	6174	15.43	0
1	6178	15.44	0
1	6182	15.45	0
1	6186	15.46	0
1	6190	15.47	0
1	6194	15.48	0
1	6198	15.49	0
1	6202	15.5	0
1	6206	15.51	0
1	6210	15.52	0
1	6214	15.53	0
1	6218	15.54	0
1	6222	15.55	0
1	6226	15.56	0
1	6230	15.57	0
1	6234	15.58	0
1	6238	15.59	0
1	6242	15.6	0
1	6246	15.61	0
1	6250	15.62	0
1	6254	15.63	0
1	6258	15.64	0
1	6262	15.65	0
1	6266	15.66	0
1	6270	15.67	0
1	6274	15.68	0
1	6278	15.69	0
1	6282	15.7	0
1	6286	15.71	0
1	6290	15.72	0
1	6294	15.73	0
1	6298	15.74	0
1	6302	15.75	0
1	6306	15.76	0
1	6310	15.77	0
1	6314	15.78	0
1	6318	15.79	0
1	6322	15.8	0
1	6326	15.81	0
1	6330	15.82	0
1	6334	15.83	0
1	6338	15.84	0
1	6342	15.85	0
1	6346	15.86	0
1	6350	15.87	0
1	6354	15.88	0
1	6358	15.89	0
1	6362	15.9	0
1	6366	15.91	0
1	6370	15.92	0
1	6374	15.93	0
1	6378	15.94	0
1	6382	15.95	0
1	6386	15.96	0
1	6390	15.97	0
1	6394	15.98	0
1	6398	15.99	0
1	6402	16	0
1	6406	16.01	0
1	6410	16.02	0
1	6414	16.03	0
1	6418	16.04	0
1	6422	16.05	0
1	6426	16.06	0
1	6430	16.07	0
1	6434	16.08	0
1	6438	16.09	0
1	6442	16.1	0
1	6446	16.11	0
1	6450	16.12	0
1	6454	16.13	0
1	6458	16.14	0
1	6462	16.15	0
1	6466	16.16	0
1	6470	16.17	0
1	6474	16.18	0
1	6478	16.19	0
1	6482	16.2	0
1	6486	16.21	0
1	6490	16.22	0
1	6494	16.23	0
1	6498	16.24	0
1	6502	16.25	0
1	6506	16.26	0
1	6510	16.27	0
1	6514	16.28	0
1	6518	16.29	0
1	6522	16.3	0
1	6526	16.31	0
1	6530	16.32	0
1	6534	16.33	0
1	6538	16.34	0
1	6542	16.35	0
1	6546	16.36	0
1	6550	16.37	0
1	6554	16.38	0
1	6558	16.39	0
1	6562	16.4	0
1	6566	16.41	0
1	6570	16.42	0
1	6574	16.43	0
1	6578	16.44	0
1	6582	16.45	0
1	6586	16.46	0
1	6590	16.47	0
1	6594	16.48	0
1	6598	16.49	0
1	6602	16.5	0
1	6606	16.51	0
1	6610	16.52	0
1	6614	16.53	0
1	6618	16.54	0
1	6622	16.55	0
1	6626	16.56	0
1	6630	16.57	0
1	6634	16.58	0
1	6638	16.59	0
1	6642	16.6	0
1	6646	16.61	0
1	6650	16.62	0
1	6654	16.63	0
1	6658	16.64	0
1	6662	16.65	0
1	6666	16.66	0
1	6670	16.67	0
1	6674	16.68	0
1	6678	16.69	0
1	6682	16.7	0
1	6686	16.71	0
1	6690	16.72	0
1	6694	16.73	0
1	6698	16.74	0
1	6702	16.75	0
1	6706	16.76	0
1	6710	16.77	0
1	6714	16.78	0
1	6718	16.79	0
1	6722	16.8	0
1	6726	16.81	0
1	6730	16.82	0
1	6734	16.83	0
1	6738	16.84	0
1	6742	16.85	0
1	6746	16.86	0
1	6750	16.87	0
1	6754	16.88	0
1	6758	16.89	0
1	6762	16.9	0
1	6766	16.91	0
1	6770	16.92	0
1	6774	16.93	0
1	6778	16.94	0
1	6782	16.95	0
1	6786	16.96	0
1	6790	16.97	0
1	6794	16.98	0
1	6798	16.99	0
1	6802	17	0
1	6806	17.01	0
1	6810	17.02	0
1	6814	17.03	0
1	6818	17.04	0
1	6822	17.05	0
1	6826	17.06	0
1	6830	17.07	0
1	6834	17.08	0
1	6838	17.09	0
1	6842	17.1	0
1	6846	17.11	0
1	6850	17.12	0
1	6854	17.13	0
1	6858	17.14	0
1	6862	17.15	0
1	6866	17.16	0
1	6870	17.17	0
1	6874	17.18	0
1	6878	17.19	0
1	6882	17.2	0
1	6886	17.21	0
1	6890	17.22	0
1	6894	17.23	0
1	6898	17.24	0
1	6902	17.25	0
1	6906	17.26	0
1	6910	17.27	0
1	6914	17.28	0
1	6918	17.29	0
1	6922	17.3	0
1	6926	17.31	0
1	6930	17.32	0
1	6934	17.33	0
1	6938	17.34	0
1	6942	17.35	0
1	6946	17.36	0
1	6950	17.37	0
1	6954	17.38	0
1	6958	17.39	0
1	6962	17.4	0
1	6966	17.41	0
1	6970	17.42	0
1	6974	17.43	0
1	6978	17.44	0
1	6982	17.45	0
1	6986	17.46	0
1	6990	17.47	0
1	6994	17.48	0
1	6998	17.49	0
1	7002	17.5	0
1	7006	17.51	0
1	7010	17.52	0
1	7014	17.53	0
1	7018	17.54	0
1	7022	17.55	0
1	7026	17.56	0
1	7030	17.57	0
1	7034	17.58	0
1	7038	17.59	0
1	7042	17.6	0
1	7046	17.61	0
1	7050	17.62	0
1	7054	17.63	0
1	7058	17.64	0
1	7062	17.65	0
1	7066	17.66	0
1	7070	17.67	0
1	7074	17.68	0
1	7078	17.69	0
1	7082	17.7	0
1	7086	17.71	0
1	7090	17.72	0
1	7094	17.73	0
1	7098	17.74	0
1	7102	17.75	0
1	7106	17.76	0
1	7110	17.77	0
1	7114	17.78	0
1	7118	17.79	0
1	7122	17.8	0
1	7126	17.81	0
1	7130	17.82	0
1	7134	17.83	0
1	7138	17.84	0
1	7142	17.85	0
1	7146	17.86	0
1	7150	17.87	0
1	7154	17.88	0
1	7158	17.89	0
1	7162	17.9	0
1	7166	17.91	0
1	7170	17.92	0
1	7174	17.93	0
1	7178	17.94	0
1	7182	17.95	0
1	7186	17.96	0
1	7190	17.97	0
1	7194	17.98	0
1	7198	17.99	0
1	7202	18	0
1	7206	18.01	0
1	7210	18.02	0
1	7214	18.03	0
1	7218	18.04	0
1	7222	18.05	0
1	7226	18.06	0
1	7230	18.07	0
1	7234	18.08	0
1	7238	18.09	0
1	7242	18.1	0
1	7246	18.11	0
1	7250	18.12	0
1	7254	18.13	0
1	7258	18.14	0
1	7262	18.15	0
1	7266	18.16	0
1	7270	18.17	0
1	7274	18.18	0
1	7278	18.19	0
1	7282	18.2	0
1	7286	18.21	0
1	7290	18.22	0
1	7294	18.23	0
1	7298	18.24	0
1	7302	18.25	0
1	7306	18.26	0
1	7310	18.27	0
1	7314	18.28	0
1	7318	18.29	0
1	7322	18.3	0
1	7326	18.31	0
1	7330	18.32	0
1	7334	18.33	0
1	7338	18.34	0
1	7342	18.35	0
1	7346	18.36	0
1	7350	18.37	0
1	7354	18.38	0
1	7358	18.39	0
1	7362	18.4	0
1	7366	18.41	0
1	7370	18.42	0
1	7374	18.43	0
1	7378	18.44	0
1	7382	18.45	0
1	7386	18.46	0
1	7390	18.47	0
1	7394	18.48	0
1	7398	18.49	0
1	7402	18.5	0
1	7406	18.51	0
1	7410	18.52	0
1	7414	18.53	0
1	7418	18.54	0
1	7422	18.55	0
1	7426	18.56	0
1	7430	18.57	0
1	7434	18.58	0
1	7438	18.59	0
1	7442	18.6	0
1	7446	18.61	0
1	7450	18.62	0
1	7454	18.63	0
1	7458	18.64	0
1	7462	18.65	0
1	7466	18.66	0
1	7470	18.67	0
1	7474	18.68	0
1	7478	18.69	0
1	7482	18.7	0
1	7486	18.71	0
1	7490	18.72	0
1	7494	18.73	0
1	7498	18.74	0
1	7502	18.75	0
1	7506	18.76	0
1	7510	18.77	0
1	7514	18.78	0
1	7518	18.79	0
1	7522	18.8	0
1	7526	18.81	0
1	7530	18.82	0
1	7534	18.83	0
1	7538	18.84	0
1	7542	18.85	0
1	7546	18.86	0
1	7550	18.87	0
1	7554	18.88	0
1	7558	18.89	0
1	7562	18.9	0
1	7566	18.91	0
1	7570	18.92	0
1	7574	18.93	0
1	7578	18.94	0
1	7582	18.95	0
1	7586	18.96	0
1	7590	18.97	0
1	7594	18.98	0
1	7598	18.99	0
1	7602	19	0
1	7606	19.01	0
1	7610	19.02	0
1	7614	19.03	0
1	7618	19.04	0
1	7622	19.05	0
1	7626	19.06	0
1	7630	19.07	0
1	7634	19.08	0
1	7638	19.09	0
1	7642	19.1	0
1	7646	19.11	0
1	7650	19.12	0
1	7654	19.13	0
1	7658	19.14	0
1	7662	19.15	0
1	7666	19.16	0
1	7670	19.17	0
1	7674	19.18	0
1	7678	19.19	0
1	7682	19.2	0
1	7686	19.21	0
1	7690	19.22	0
1	7694	19.23	0
1	7698	19.24	0
1	7702	19.25	0
1	7706	19.26	0
1	7710	19.27	0
1	7714	19.28	0
1	7718	19.29	0
1	7722	19.3	0
1	7726	19.31	0
1	7730	19.32	0
1	7734	19.33	0
1	7738	19.34	0
1	7742	19.35	0
1	7746	19.36	0
1	7750	19.37	0
1	7754	19.38	0
1	7758	19.39	0
1	7762	19.4	0
1	7766	19.41	0
1	7770	19.42	0
1	7774	19.43	0
1	7778	19.44	0
1	7782	19.45	0
1	7786	19.46	0
1	7790	19.47	0
1	7794	19.48	0
1	7798	19.49	0
1	7802	19.5	0
1	7806	19.51	0
1	7810	19.52	0
1	7814	19.53	0
1	7818	19.54	0
1	7822	19.55	0
1	7826	19.56	0
1	7830	19.57	0
1	7834	19.58	0
1	7838	19.59	0
1	7842	19.6	0
1	7846	19.61	0
1	7850	19.62	0
1	7854	19.63	0
1	7858	19.64	0
1	7862	19.65	0
1	7866	19.66	0
1	7870	19.67	0
1	7874	19.68	0
1	7878	19.69	0
1	7882	19.7	0
1	7886	19.71	0
1	7890	19.72	0
1	7894	19.73	0
1	7898	19.74	0
1	7902	19.75	0
1	7906	19.76	0
1	7910	19.77	0
1	7914	19.78	0
1	7918	19.79	0
1	7922	19.8	0
1	7926	19.81	0
1	7930	19.82	0
1	7934	19.83	0
1	7938	19.84	0
1	7942	19.85	0
1	7946	19.86	0
1	7950	19.87	0
1	7954	19.88	0
1	7958	19.89	0
1	7962	19.9	0
1	7966	19.91	0
1	7970	19.92	0
1	7974	19.93	0
1	7978	19.94	0
1	7982	19.95	0
1	7986	19.96	0
1	7990	19.97	0
1	7994	19.98	0
1	7998	19.99	0
1	8002	20	0
1	8006	20.01	0
1	8010	20.02	0
1	8014	20.03	0
1	8018	20.04	0
1	8022	20.05	0
1	8026	20.06	0
1	8030	20.07	0
1	8034	20.08	0
1	8038	20.09	0
1	8042	20.1	0
1	8046	20.11	0
1	8050	20.12	0
1	8054	20.13	0
1	8058	20.14	0
1	8062	20.15	0
1	8066	20.16	0
1	8070	20.17	0
1	8074	20.18	0
1	8078	20.19	0
1	8082	20.2	0
1	8086	20.21	0
1	8090	20.22	0
1	8094	20.23	0
1	8098	20.24	0
1	8102	20.25	0
1	8106	20.26	0
1	8110	20.27	0
1	8114	20.28	0
1	8118	20.29	0
1	8122	20.3	0
1	8126	20.31	0
1	8130	20.32	0
1	8134	20.33	0
1	8138	20.34	0
1	8142	20.35	0
1	8146	20.36	0
1	8150	20.37	0
1	8154	20.38	0
1	8158	20.39	0
1	8162	20.4	0
1	8166	20.41	0
1	8170	20.42	0
1	8174	20.43	0
1	8178	20.44	0
1	8182	20.45	0
1	8186	20.46	0
1	8190	20.47	0
1	8194	20.48	0
1	8198	20.49	0
1	8202	20.5	0