version 2
run General-0-20120215-13:13:05-32640
attr configname General
attr datetime 20120215-13:13:05
attr experiment General
attr inifile omnetpp.ini
attr iterationvars ""
attr iterationvars2 $repetition=0
attr measurement ""
attr network FifoNet
attr processid 32640
attr repetition 0
attr replication #0
attr resultdir results
attr runnumber 0
attr seedset 0

vector 0  FifoNet.fifo  qlen:vector  ETV
attr interpolationmode  sample-hold
attr title  "queue length, vector"
vector 1  FifoNet.fifo  queueingTime:vector  ETV
attr interpolationmode  none
attr title  "queueing time at dequeue, vector"
attr unit  s
