version 2
run Terminal-0-20120111-15:18:51-3272
attr configname Terminal
attr datetime 20120111-15:18:51
attr experiment Terminal
attr inifile omnetpp.ini
attr iterationvars ""
attr iterationvars2 $repetition=0
attr measurement ""
attr network Terminal
attr processid 3272
attr repetition 0
attr replication #0
attr resultdir results
attr runnumber 0
attr seedset 0

vector 1  Terminal.firstClass  queueLength:vector  ETV
attr interpolationmode  sample-hold
attr title  "queue length, vector"
vector 2  Terminal.businessClass  queueLength:vector  ETV
attr interpolationmode  sample-hold
attr title  "queue length, vector"
vector 3  Terminal.economyClass  queueLength:vector  ETV
attr interpolationmode  sample-hold
attr title  "queue length, vector"
vector 0  Terminal.toOtherTerminal  lifeTime:vector  ETV
attr interpolationmode  none
attr title  "lifetime of arrived jobs, vector"
attr unit  s
vector 4  Terminal.boarding  lifeTime:vector  ETV
attr interpolationmode  none
attr title  "lifetime of arrived jobs, vector"
attr unit  s
0	6	93.193919117733	0
0	36	303.805535906749	0
0	55	445.998653384713	0
0	60	503.452341341658	0
0	74	701.970334967869	0
0	82	913.45753777067	0
0	85	1002.227651889761	0
0	102	1153.105002576578	0
0	113	1254.337518184915	0
0	153	1550.894377423503	0
0	217	2096.175593904799	0
0	220	2125.604151144378	0
0	223	2161.012106232517	0
0	239	2296.171168795365	0
0	242	2308.209601603266	0
0	261	2528.218651014032	0
0	286	2942.431838986935	0
0	292	2960.714402239938	0
0	303	3021.273018285525	0
0	308	3138.106064120617	0
0	333	3423.174328626833	0
0	336	3441.068051480929	0
0	339	3441.585092767453	0
1	0	0	0
1	33	283.546947559719	1
1	39	391.32045382608	0
1	52	444.680789617862	1
1	66	539.055563715842	0
1	110	1250.530901042666	1
1	116	1315.858667262085	0
1	123	1328.347535415262	1
1	124	1330.501576706276	0
1	161	1568.462707182013	1
1	179	1698.797784668405	2
1	187	1765.165222638934	1
1	195	1825.517482948927	0
1	214	2046.707160572638	1
1	231	2241.888566029705	2
1	234	2295.687147341931	1
1	248	2386.085267338281	0
1	255	2431.15965371266	1
1	256	2444.591383387659	0
1	275	2762.269736198219	1
1	276	2775.698710310524	0
1	341	3455.467746228041	1
1	342	3493.608553748286	0
2	0	0	0
2	38	324.274303663275	1
2	45	430.553407859346	0
2	57	473.724774500089	1
2	69	661.474419192355	0
2	96	1128.252376603281	1
2	97	1142.193438582861	0
2	147	1469.251844705758	1
2	154	1551.425484143675	0
2	181	1706.813880322612	1
2	198	1888.987067750061	0
2	233	2248.434679352404	1
2	262	2659.006685728322	0
3	0	0	0
3	65	533.247914500643	1
3	75	783.927952147058	0
3	115	1282.084743589076	1
3	127	1354.007825346879	0
3	134	1381.540145110145	1
3	138	1411.690681690824	0
3	145	1449.055087674217	1
3	157	1555.152401571658	0
3	166	1649.998229764257	1
3	174	1690.422612967559	2
3	186	1763.823618715112	3
3	194	1796.176471279621	4
3	201	1903.045158876595	3
3	204	1963.526313601803	2
3	207	1974.081126327339	1
3	247	2336.574715724729	2
3	265	2696.946881512069	1
3	271	2739.701897112062	0
3	319	3300.806517672287	1
3	324	3338.207835345711	2
3	325	3341.190283270763	1
3	349	3553.437738583337	2
3	350	3556.115392999053	1
3	353	3574.566456424796	0
4	14	146.793292512272	103.02019476116
4	19	235.570942180257	91.599750831631
4	40	391.32045382608	144.0062394963
4	46	430.553407859346	156.55714452488
4	67	539.055563715842	261.84814358126
4	70	661.474419192355	219.52846035822
4	76	783.927952147058	388.15080022244
4	79	880.242325570749	351.53133668006
4	98	1142.193438582861	99.542743527661
4	117	1315.858667262085	210.73133041282
4	125	1330.501576706276	99.221516724544
4	128	1354.007825346879	26.229347007649
4	139	1411.690681690824	174.2535828743
4	155	1551.425484143675	177.42859699577
4	158	1555.152401571658	172.23800750423
4	188	1765.165222638934	329.47568981625
4	196	1825.517482948927	326.84530761774
4	199	1888.987067750061	201.55814201014
4	202	1903.045158876595	208.02465527311
4	205	1963.526313601803	346.84600720816
4	208	1974.081126327339	296.9606342184
4	235	2295.687147341931	549.18325795101
4	249	2386.085267338281	348.14052276366
4	257	2444.591383387659	207.16418543552
4	263	2659.006685728322	230.87807527493
4	266	2696.946881512069	482.20725120566
4	272	2739.701897112062	946.75447907712
4	277	2775.698710310524	442.18834103154
4	280	2856.353426639663	121.93804534848
4	294	2966.491139523577	25.169757584681
4	305	3043.18073537369	57.968262728165
4	326	3341.190283270763	51.927321435963
4	343	3493.608553748286	217.78734155798
4	351	3556.115392999053	180.1253246313
4	354	3574.566456424796	239.31813033163
4	357	3586.70748273883	43.519369166276
