version 2
run WhiteRabbitSwitch2-0-20120113-12:12:49-1236
attr configname WhiteRabbitSwitch2
attr datetime 20120113-12:12:49
attr experiment WhiteRabbitSwitch2
attr inifile omnetpp.ini
attr iterationvars ""
attr iterationvars2 $repetition=0
attr measurement ""
attr network WhiteRabbitSwitch2
attr processid 1236
attr repetition 0
attr replication #0
attr resultdir results
attr runnumber 0
attr seedset 0

vector 1  WhiteRabbitSwitch2.wrQueue  queueLength:vector  ETV
attr interpolationmode  sample-hold
attr title  "queue length, vector"
vector 0  WhiteRabbitSwitch2.out  lifeTime:vector  ETV
attr interpolationmode  none
attr title  "lifetime of arrived jobs, vector"
attr unit  s
0	22	75.426653579681	0
1	0	0	0
1	6	43.773097751117	1
1	9	49.420821366616	2
1	12	50.777272230893	3
1	15	69.076191692606	4
1	18	73.603729465872	5
1	25	79.47934813026	6
1	28	86.49682138469	1
