version 2
run WhiteRabbitSwitch1-0-20120113-14:06:19-592
attr configname WhiteRabbitSwitch1
attr datetime 20120113-14:06:19
attr experiment WhiteRabbitSwitch1
attr inifile omnetpp.ini
attr iterationvars ""
attr iterationvars2 $repetition=0
attr measurement ""
attr network WhiteRabbitSwitch1
attr processid 592
attr repetition 0
attr replication #0
attr resultdir results
attr runnumber 0
attr seedset 0

vector 1  WhiteRabbitSwitch1.queue  queueLength:vector  ETV
attr interpolationmode  sample-hold
attr title  "queue length, vector"
vector 2  WhiteRabbitSwitch1.queue1  queueLength:vector  ETV
attr interpolationmode  sample-hold
attr title  "queue length, vector"
vector 3  WhiteRabbitSwitch1.queue2  queueLength:vector  ETV
attr interpolationmode  sample-hold
attr title  "queue length, vector"
vector 4  WhiteRabbitSwitch1.queue3  queueLength:vector  ETV
attr interpolationmode  sample-hold
attr title  "queue length, vector"
vector 5  WhiteRabbitSwitch1.queue4  queueLength:vector  ETV
attr interpolationmode  sample-hold
attr title  "queue length, vector"
vector 6  WhiteRabbitSwitch1.queue5  queueLength:vector  ETV
attr interpolationmode  sample-hold
attr title  "queue length, vector"
vector 7  WhiteRabbitSwitch1.queue6  queueLength:vector  ETV
attr interpolationmode  sample-hold
attr title  "queue length, vector"
vector 8  WhiteRabbitSwitch1.queue7  queueLength:vector  ETV
attr interpolationmode  sample-hold
attr title  "queue length, vector"
vector 0  WhiteRabbitSwitch1.out  lifeTime:vector  ETV
attr interpolationmode  none
attr title  "lifetime of arrived jobs, vector"
attr unit  s
0	12	66.930409112914	0
0	54	191.120822029749	0
0	62	196.78335700025	0
0	70	206.344457448692	0
0	78	230.945926591104	0
0	88	247.301870297209	0
0	116	323.047764523236	0
0	132	393.700508553025	0
0	214	665.144974520567	0
0	232	713.775944027998	0
0	240	741.849844680569	0
0	252	771.786064025663	0
0	256	783.384719988086	0
1	0	0	0
1	18	75.426653579681	1
1	42	158.244787804737	2
1	64	198.712399893314	3
1	66	204.632330841897	4
1	160	499.437850105273	5
1	164	518.920177378771	6
1	180	565.894562839137	1
1	182	573.164666867945	2
1	186	575.022940073299	3
1	208	645.441321282979	4
1	222	697.791955197798	5
1	260	792.343045185573	6
1	264	805.692562337521	1
1	272	821.804892554284	2
2	0	0	0
2	72	209.834383834606	1
2	84	245.242338922745	2
2	90	250.860307406616	3
2	150	457.057037683762	4
2	162	508.339196106124	5
2	168	532.37573686369	6
2	176	563.429314425333	1
2	198	630.365386668895	2
2	210	653.134227415891	3
2	246	762.97868562784	4
2	258	784.570202178155	5
2	268	818.067655877143	6
2	280	843.844862055873	1
3	0	0	0
3	20	91.712981485949	1
3	30	127.006985983245	2
3	36	143.907405351634	3
3	92	252.10626228441	4
3	100	291.298359917737	5
3	110	315.796430323324	6
3	122	354.915066870267	1
3	136	403.487164178027	2
3	148	432.676901491936	3
3	152	460.303995396287	4
3	158	495.236019755982	5
3	192	611.145638028252	6
3	200	635.689543156799	1
3	202	636.717794029951	2
3	218	688.260423504736	3
3	224	701.214275042753	4
3	292	894.510602472269	5
4	0	0	0
4	46	164.754873458168	1
4	48	170.505740875803	2
4	96	289.689897434327	3
4	98	290.800354482366	4
4	104	309.082917735369	5
4	120	338.501558401998	6
4	124	355.415033208929	1
4	134	401.784599977091	2
4	142	421.200707307169	3
4	156	486.066768657623	4
4	170	538.997396725028	5
4	174	547.373546114023	6
4	178	563.959671341306	1
4	236	737.183169945459	2
4	286	867.473669341493	3
4	290	880.959564436819	4
5	0	0	0
5	34	142.748888248765	1
5	38	150.739179749836	2
5	44	164.56848601395	3
5	58	196.167768384717	4
5	82	242.611297028739	5
5	94	267.912064704454	6
5	112	318.97838203403	1
5	118	324.404148997033	2
5	190	605.065870631427	3
5	194	619.493982635566	4
5	220	695.74000699673	5
5	226	709.317266780664	6
5	234	725.460187636443	1
5	248	767.761776696746	2
5	274	822.294512806091	3
5	284	862.363324156479	4
6	0	0	0
6	50	185.510050878799	1
6	56	195.818484509782	2
6	102	308.891660413676	3
6	128	373.069704373851	4
6	138	405.664025883722	5
6	166	522.786492667463	6
6	244	756.784608676156	1
6	262	794.678847268549	2
6	266	809.014054384253	3
6	270	818.192159652053	4
6	276	831.497740114464	5
6	278	842.072119360783	6
6	288	869.807515689614	1
7	0	0	0
7	16	73.603729465872	1
7	22	98.862377014908	2
7	32	132.903497294377	3
7	74	222.408886778388	4
7	80	231.930896866426	5
7	108	314.795840196414	6
7	126	360.781204454778	1
7	140	407.992817685371	2
7	146	428.658454017744	3
7	188	600.559213688946	4
7	196	625.579365152491	5
7	216	666.066575651752	6
7	228	710.505478588714	1
7	242	742.997541704127	2
7	282	860.343522515247	3
8	0	0	0
8	40	151.320688708466	1
8	106	309.606014878738	2
8	144	424.650785328337	3
8	154	483.93170395584	4
8	172	543.294314881899	5
8	184	574.779700210458	6
8	204	640.528821355978	1
8	206	642.308445611468	2
