version 2
run WhiteRabbitSwitch7-0-20120130-14:29:21-29631
attr configname WhiteRabbitSwitch7
attr datetime 20120130-14:29:21
attr experiment WhiteRabbitSwitch7
attr inifile omnetpp.ini
attr iterationvars ""
attr iterationvars2 $repetition=0
attr measurement ""
attr network WhiteRabbitSwitch7
attr processid 29631
attr repetition 0
attr replication #0
attr resultdir results
attr runnumber 0
attr seedset 0

vector 1  WhiteRabbitSwitch7.wrQueue0  queueLength:vector  ETV
attr interpolationmode  sample-hold
attr title  "queue length, vector"
vector 2  WhiteRabbitSwitch7.wrQueue1  queueLength:vector  ETV
attr interpolationmode  sample-hold
attr title  "queue length, vector"
vector 3  WhiteRabbitSwitch7.wrQueue2  queueLength:vector  ETV
attr interpolationmode  sample-hold
attr title  "queue length, vector"
vector 4  WhiteRabbitSwitch7.wrQueue3  queueLength:vector  ETV
attr interpolationmode  sample-hold
attr title  "queue length, vector"
vector 5  WhiteRabbitSwitch7.wrQueue4  queueLength:vector  ETV
attr interpolationmode  sample-hold
attr title  "queue length, vector"
vector 6  WhiteRabbitSwitch7.wrQueue5  queueLength:vector  ETV
attr interpolationmode  sample-hold
attr title  "queue length, vector"
vector 7  WhiteRabbitSwitch7.wrQueue6  queueLength:vector  ETV
attr interpolationmode  sample-hold
attr title  "queue length, vector"
vector 8  WhiteRabbitSwitch7.wrQueue7  queueLength:vector  ETV
attr interpolationmode  sample-hold
attr title  "queue length, vector"
vector 14  WhiteRabbitSwitch7.out6  lifeTime:vector  ETV
attr interpolationmode  none
attr title  "lifetime of arrived jobs, vector"
attr unit  s
vector 15  WhiteRabbitSwitch7.out7  lifeTime:vector  ETV
attr interpolationmode  none
attr title  "lifetime of arrived jobs, vector"
attr unit  s
vector 10  WhiteRabbitSwitch7.out2  lifeTime:vector  ETV
attr interpolationmode  none
attr title  "lifetime of arrived jobs, vector"
attr unit  s
vector 11  WhiteRabbitSwitch7.out3  lifeTime:vector  ETV
attr interpolationmode  none
attr title  "lifetime of arrived jobs, vector"
attr unit  s
vector 13  WhiteRabbitSwitch7.out5  lifeTime:vector  ETV
attr interpolationmode  none
attr title  "lifetime of arrived jobs, vector"
attr unit  s
vector 9  WhiteRabbitSwitch7.out1  lifeTime:vector  ETV
attr interpolationmode  none
attr title  "lifetime of arrived jobs, vector"
attr unit  s
vector 0  WhiteRabbitSwitch7.out0  lifeTime:vector  ETV
attr interpolationmode  none
attr title  "lifetime of arrived jobs, vector"
attr unit  s
vector 12  WhiteRabbitSwitch7.out4  lifeTime:vector  ETV
attr interpolationmode  none
attr title  "lifetime of arrived jobs, vector"
attr unit  s
0	299	1	0
0	313	1	0
0	317	1	0
1	0	0	0
2	0	0	0
3	0	0	0
4	0	0	0
5	0	0	0
6	0	0	0
7	0	0	0
8	0	0	0
9	298	1	0
9	300	1	0
9	301	1	0
9	302	1	0
9	315	1	0
9	319	1	0
10	292	1	0
10	293	1	0
10	295	1	0
10	308	1	0
10	311	1	0
10	321	1	0
10	327	1	0
11	294	1	0
11	307	1	0
11	310	1	0
11	318	1	0
11	322	1	0
11	325	1	0
12	304	1	0
12	305	1	0
12	309	1	0
12	314	1	0
12	323	1	0
12	324	1	0
13	297	1	0
13	306	1	0
13	328	1	0
14	289	1	0
14	290	1	0
14	312	1	0
15	291	1	0
15	296	1	0
15	303	1	0
15	316	1	0
15	320	1	0
15	326	1	0
