version 2
run WhiteRabbitSwitch7-0-20120131-11:40:05-1855
attr configname WhiteRabbitSwitch7
attr datetime 20120131-11:40:05
attr experiment WhiteRabbitSwitch7
attr inifile omnetpp.ini
attr iterationvars ""
attr iterationvars2 $repetition=0
attr measurement ""
attr network WhiteRabbitSwitch7
attr processid 1855
attr repetition 0
attr replication #0
attr resultdir results
attr runnumber 0
attr seedset 0

vector 17  WhiteRabbitSwitch7.wrQueue0  queueLength:vector  ETV
attr interpolationmode  sample-hold
attr title  "queue length, vector"
vector 18  WhiteRabbitSwitch7.wrQueue1  queueLength:vector  ETV
attr interpolationmode  sample-hold
attr title  "queue length, vector"
vector 19  WhiteRabbitSwitch7.wrQueue2  queueLength:vector  ETV
attr interpolationmode  sample-hold
attr title  "queue length, vector"
vector 20  WhiteRabbitSwitch7.wrQueue3  queueLength:vector  ETV
attr interpolationmode  sample-hold
attr title  "queue length, vector"
vector 21  WhiteRabbitSwitch7.wrQueue4  queueLength:vector  ETV
attr interpolationmode  sample-hold
attr title  "queue length, vector"
vector 22  WhiteRabbitSwitch7.wrQueue5  queueLength:vector  ETV
attr interpolationmode  sample-hold
attr title  "queue length, vector"
vector 23  WhiteRabbitSwitch7.wrQueue6  queueLength:vector  ETV
attr interpolationmode  sample-hold
attr title  "queue length, vector"
vector 24  WhiteRabbitSwitch7.wrQueue7  queueLength:vector  ETV
attr interpolationmode  sample-hold
attr title  "queue length, vector"
vector 16  WhiteRabbitSwitch7.out0  lifeTime:vector  ETV
attr interpolationmode  none
attr title  "lifetime of arrived jobs, vector"
attr unit  s
vector 30  WhiteRabbitSwitch7.out6  lifeTime:vector  ETV
attr interpolationmode  none
attr title  "lifetime of arrived jobs, vector"
attr unit  s
vector 31  WhiteRabbitSwitch7.out7  lifeTime:vector  ETV
attr interpolationmode  none
attr title  "lifetime of arrived jobs, vector"
attr unit  s
vector 26  WhiteRabbitSwitch7.out2  lifeTime:vector  ETV
attr interpolationmode  none
attr title  "lifetime of arrived jobs, vector"
attr unit  s
vector 25  WhiteRabbitSwitch7.out1  lifeTime:vector  ETV
attr interpolationmode  none
attr title  "lifetime of arrived jobs, vector"
attr unit  s
vector 29  WhiteRabbitSwitch7.out5  lifeTime:vector  ETV
attr interpolationmode  none
attr title  "lifetime of arrived jobs, vector"
attr unit  s
vector 27  WhiteRabbitSwitch7.out3  lifeTime:vector  ETV
attr interpolationmode  none
attr title  "lifetime of arrived jobs, vector"
attr unit  s
vector 28  WhiteRabbitSwitch7.out4  lifeTime:vector  ETV
attr interpolationmode  none
attr title  "lifetime of arrived jobs, vector"
attr unit  s
16	3209	1	0
16	3212	1	0
16	3216	1	0
16	3222	1	0
16	3233	1	0
16	3237	1	0
16	3246	1	0
16	3247	1	0
16	3255	1	0
16	3259	1	0
16	3265	1	0
16	3266	1	0
16	3270	1	0
16	3284	1	0
16	3298	1	0
16	3310	1	0
16	3312	1	0
16	3334	1	0
16	3340	1	0
16	3348	1	0
16	3352	1	0
16	3360	1	0
16	3381	1	0
16	3388	1	0
16	3391	1	0
16	3414	1	0
16	3426	1	0
16	3427	1	0
16	3442	1	0
16	3445	1	0
16	3456	1	0
16	3457	1	0
16	3458	1	0
16	3461	1	0
16	3467	1	0
16	3477	1	0
16	3484	1	0
16	3490	1	0
16	3494	1	0
16	3500	1	0
16	3511	1	0
16	3515	1	0
16	3522	1	0
16	3525	1	0
16	3538	1	0
16	3559	1	0
16	3576	1	0
16	3583	1	0
16	3597	1	0
16	3624	1	0
16	3628	1	0
16	3638	1	0
16	3651	1	0
16	3652	1	0
16	3664	1	0
16	3678	1	0
16	3679	1	0
16	3682	1	0
16	3684	1	0
16	3693	1	0
16	3702	1	0
16	3704	1	0
16	3705	1	0
16	3719	1	0
16	3733	1	0
16	3736	1	0
16	3737	1	0
16	3739	1	0
16	3741	1	0
16	3758	1	0
16	3761	1	0
16	3762	1	0
16	3764	1	0
16	3768	1	0
16	3778	1	0
16	3783	1	0
16	3797	1	0
16	3801	1	0
16	3805	1	0
16	3806	1	0
16	3809	1	0
16	3813	1	0
16	3824	1	0
16	3831	1	0
16	3857	1	0
16	3858	1	0
16	3869	1	0
16	3870	1	0
16	3871	1	0
16	3873	1	0
16	3874	1	0
16	3884	1	0
16	3887	1	0
16	3895	1	0
16	3906	1	0
16	3908	1	0
16	3931	1	0
16	3952	1	0
16	3954	1	0
16	3967	1	0
16	3972	1	0
16	3980	1	0
16	3983	1	0
16	3991	1	0
16	3993	1	0
16	3994	1	0
16	3996	1	0
16	4000	1	0
16	4003	1	0
17	0	0	0
18	0	0	0
19	0	0	0
20	0	0	0
21	0	0	0
22	0	0	0
23	0	0	0
24	0	0	0
25	3214	1	0
25	3219	1	0
25	3232	1	0
25	3235	1	0
25	3240	1	0
25	3250	1	0
25	3252	1	0
25	3257	1	0
25	3268	1	0
25	3280	1	0
25	3301	1	0
25	3302	1	0
25	3303	1	0
25	3307	1	0
25	3315	1	0
25	3319	1	0
25	3323	1	0
25	3328	1	0
25	3342	1	0
25	3343	1	0
25	3368	1	0
25	3369	1	0
25	3372	1	0
25	3376	1	0
25	3378	1	0
25	3380	1	0
25	3387	1	0
25	3393	1	0
25	3402	1	0
25	3404	1	0
25	3416	1	0
25	3419	1	0
25	3421	1	0
25	3433	1	0
25	3440	1	0
25	3447	1	0
25	3463	1	0
25	3464	1	0
25	3474	1	0
25	3487	1	0
25	3495	1	0
25	3519	1	0
25	3527	1	0
25	3529	1	0
25	3535	1	0
25	3537	1	0
25	3547	1	0
25	3548	1	0
25	3549	1	0
25	3565	1	0
25	3570	1	0
25	3574	1	0
25	3575	1	0
25	3577	1	0
25	3579	1	0
25	3582	1	0
25	3584	1	0
25	3588	1	0
25	3589	1	0
25	3593	1	0
25	3603	1	0
25	3634	1	0
25	3636	1	0
25	3643	1	0
25	3644	1	0
25	3649	1	0
25	3650	1	0
25	3655	1	0
25	3663	1	0
25	3670	1	0
25	3680	1	0
25	3699	1	0
25	3700	1	0
25	3701	1	0
25	3706	1	0
25	3711	1	0
25	3720	1	0
25	3728	1	0
25	3760	1	0
25	3767	1	0
25	3774	1	0
25	3776	1	0
25	3784	1	0
25	3841	1	0
25	3844	1	0
25	3847	1	0
25	3848	1	0
25	3882	1	0
25	3891	1	0
25	3897	1	0
25	3907	1	0
25	3912	1	0
25	3944	1	0
25	3945	1	0
25	3953	1	0
25	3971	1	0
25	3975	1	0
25	3978	1	0
25	3995	1	0
26	3213	1	0
26	3218	1	0
26	3225	1	0
26	3230	1	0
26	3243	1	0
26	3253	1	0
26	3282	1	0
26	3309	1	0
26	3314	1	0
26	3316	1	0
26	3324	1	0
26	3339	1	0
26	3344	1	0
26	3349	1	0
26	3356	1	0
26	3358	1	0
26	3367	1	0
26	3371	1	0
26	3379	1	0
26	3383	1	0
26	3406	1	0
26	3407	1	0
26	3415	1	0
26	3422	1	0
26	3425	1	0
26	3432	1	0
26	3434	1	0
26	3449	1	0
26	3481	1	0
26	3496	1	0
26	3498	1	0
26	3502	1	0
26	3504	1	0
26	3513	1	0
26	3516	1	0
26	3518	1	0
26	3533	1	0
26	3550	1	0
26	3553	1	0
26	3571	1	0
26	3572	1	0
26	3602	1	0
26	3604	1	0
26	3607	1	0
26	3618	1	0
26	3626	1	0
26	3648	1	0
26	3661	1	0
26	3667	1	0
26	3681	1	0
26	3683	1	0
26	3689	1	0
26	3691	1	0
26	3697	1	0
26	3709	1	0
26	3718	1	0
26	3722	1	0
26	3731	1	0
26	3738	1	0
26	3740	1	0
26	3742	1	0
26	3747	1	0
26	3755	1	0
26	3766	1	0
26	3770	1	0
26	3771	1	0
26	3811	1	0
26	3818	1	0
26	3829	1	0
26	3832	1	0
26	3845	1	0
26	3860	1	0
26	3872	1	0
26	3880	1	0
26	3886	1	0
26	3889	1	0
26	3892	1	0
26	3900	1	0
26	3914	1	0
26	3915	1	0
26	3918	1	0
26	3923	1	0
26	3926	1	0
26	3930	1	0
26	3935	1	0
26	3941	1	0
26	3949	1	0
26	3959	1	0
26	3960	1	0
26	3962	1	0
26	3966	1	0
26	3997	1	0
26	3998	1	0
26	4006	1	0
26	4007	1	0
27	3227	1	0
27	3228	1	0
27	3234	1	0
27	3249	1	0
27	3251	1	0
27	3254	1	0
27	3258	1	0
27	3271	1	0
27	3276	1	0
27	3283	1	0
27	3286	1	0
27	3313	1	0
27	3345	1	0
27	3346	1	0
27	3355	1	0
27	3357	1	0
27	3362	1	0
27	3365	1	0
27	3366	1	0
27	3374	1	0
27	3375	1	0
27	3397	1	0
27	3401	1	0
27	3409	1	0
27	3412	1	0
27	3418	1	0
27	3424	1	0
27	3435	1	0
27	3439	1	0
27	3441	1	0
27	3450	1	0
27	3451	1	0
27	3462	1	0
27	3468	1	0
27	3469	1	0
27	3470	1	0
27	3479	1	0
27	3480	1	0
27	3510	1	0
27	3521	1	0
27	3539	1	0
27	3542	1	0
27	3545	1	0
27	3556	1	0
27	3568	1	0
27	3578	1	0
27	3580	1	0
27	3594	1	0
27	3596	1	0
27	3598	1	0
27	3605	1	0
27	3606	1	0
27	3616	1	0
27	3632	1	0
27	3640	1	0
27	3668	1	0
27	3672	1	0
27	3686	1	0
27	3690	1	0
27	3694	1	0
27	3714	1	0
27	3716	1	0
27	3726	1	0
27	3729	1	0
27	3746	1	0
27	3750	1	0
27	3754	1	0
27	3781	1	0
27	3782	1	0
27	3786	1	0
27	3790	1	0
27	3793	1	0
27	3796	1	0
27	3799	1	0
27	3803	1	0
27	3812	1	0
27	3814	1	0
27	3820	1	0
27	3825	1	0
27	3827	1	0
27	3828	1	0
27	3834	1	0
27	3852	1	0
27	3859	1	0
27	3866	1	0
27	3875	1	0
27	3876	1	0
27	3881	1	0
27	3890	1	0
27	3899	1	0
27	3911	1	0
27	3925	1	0
27	3936	1	0
27	3940	1	0
27	3950	1	0
27	3957	1	0
27	3982	1	0
27	3985	1	0
27	3987	1	0
27	3992	1	0
28	3231	1	0
28	3239	1	0
28	3242	1	0
28	3248	1	0
28	3267	1	0
28	3272	1	0
28	3275	1	0
28	3278	1	0
28	3293	1	0
28	3294	1	0
28	3295	1	0
28	3296	1	0
28	3300	1	0
28	3320	1	0
28	3325	1	0
28	3335	1	0
28	3336	1	0
28	3351	1	0
28	3359	1	0
28	3370	1	0
28	3395	1	0
28	3408	1	0
28	3413	1	0
28	3423	1	0
28	3431	1	0
28	3443	1	0
28	3452	1	0
28	3466	1	0
28	3471	1	0
28	3473	1	0
28	3493	1	0
28	3505	1	0
28	3508	1	0
28	3534	1	0
28	3541	1	0
28	3554	1	0
28	3555	1	0
28	3557	1	0
28	3561	1	0
28	3563	1	0
28	3586	1	0
28	3587	1	0
28	3590	1	0
28	3608	1	0
28	3610	1	0
28	3617	1	0
28	3622	1	0
28	3623	1	0
28	3627	1	0
28	3630	1	0
28	3637	1	0
28	3641	1	0
28	3647	1	0
28	3654	1	0
28	3675	1	0
28	3688	1	0
28	3692	1	0
28	3703	1	0
28	3712	1	0
28	3715	1	0
28	3732	1	0
28	3735	1	0
28	3748	1	0
28	3752	1	0
28	3756	1	0
28	3773	1	0
28	3780	1	0
28	3789	1	0
28	3792	1	0
28	3795	1	0
28	3804	1	0
28	3810	1	0
28	3815	1	0
28	3826	1	0
28	3837	1	0
28	3839	1	0
28	3840	1	0
28	3846	1	0
28	3851	1	0
28	3853	1	0
28	3854	1	0
28	3855	1	0
28	3862	1	0
28	3863	1	0
28	3867	1	0
28	3868	1	0
28	3877	1	0
28	3878	1	0
28	3879	1	0
28	3898	1	0
28	3902	1	0
28	3903	1	0
28	3905	1	0
28	3917	1	0
28	3919	1	0
28	3932	1	0
28	3938	1	0
28	3939	1	0
28	3970	1	0
28	3973	1	0
28	3989	1	0
28	4004	1	0
28	4008	1	0
29	3217	1	0
29	3226	1	0
29	3229	1	0
29	3236	1	0
29	3241	1	0
29	3256	1	0
29	3262	1	0
29	3273	1	0
29	3274	1	0
29	3287	1	0
29	3291	1	0
29	3292	1	0
29	3297	1	0
29	3306	1	0
29	3308	1	0
29	3317	1	0
29	3326	1	0
29	3329	1	0
29	3330	1	0
29	3347	1	0
29	3354	1	0
29	3364	1	0
29	3373	1	0
29	3385	1	0
29	3386	1	0
29	3396	1	0
29	3400	1	0
29	3405	1	0
29	3410	1	0
29	3411	1	0
29	3417	1	0
29	3420	1	0
29	3437	1	0
29	3453	1	0
29	3476	1	0
29	3497	1	0
29	3499	1	0
29	3501	1	0
29	3506	1	0
29	3509	1	0
29	3520	1	0
29	3523	1	0
29	3528	1	0
29	3531	1	0
29	3552	1	0
29	3558	1	0
29	3560	1	0
29	3562	1	0
29	3566	1	0
29	3567	1	0
29	3573	1	0
29	3585	1	0
29	3595	1	0
29	3601	1	0
29	3612	1	0
29	3613	1	0
29	3619	1	0
29	3620	1	0
29	3635	1	0
29	3653	1	0
29	3656	1	0
29	3659	1	0
29	3660	1	0
29	3662	1	0
29	3676	1	0
29	3685	1	0
29	3687	1	0
29	3695	1	0
29	3721	1	0
29	3723	1	0
29	3727	1	0
29	3745	1	0
29	3751	1	0
29	3753	1	0
29	3759	1	0
29	3763	1	0
29	3769	1	0
29	3772	1	0
29	3775	1	0
29	3777	1	0
29	3787	1	0
29	3794	1	0
29	3798	1	0
29	3800	1	0
29	3819	1	0
29	3821	1	0
29	3822	1	0
29	3833	1	0
29	3838	1	0
29	3864	1	0
29	3901	1	0
29	3909	1	0
29	3910	1	0
29	3916	1	0
29	3922	1	0
29	3928	1	0
29	3934	1	0
29	3937	1	0
29	3943	1	0
29	3956	1	0
29	3958	1	0
29	3964	1	0
29	3968	1	0
29	3979	1	0
29	3981	1	0
29	3999	1	0
29	4005	1	0
30	3210	1	0
30	3215	1	0
30	3221	1	0
30	3224	1	0
30	3245	1	0
30	3260	1	0
30	3261	1	0
30	3264	1	0
30	3277	1	0
30	3281	1	0
30	3285	1	0
30	3289	1	0
30	3290	1	0
30	3299	1	0
30	3304	1	0
30	3305	1	0
30	3321	1	0
30	3327	1	0
30	3331	1	0
30	3332	1	0
30	3333	1	0
30	3337	1	0
30	3338	1	0
30	3350	1	0
30	3353	1	0
30	3377	1	0
30	3384	1	0
30	3390	1	0
30	3392	1	0
30	3398	1	0
30	3403	1	0
30	3428	1	0
30	3436	1	0
30	3438	1	0
30	3446	1	0
30	3448	1	0
30	3465	1	0
30	3472	1	0
30	3475	1	0
30	3491	1	0
30	3503	1	0
30	3517	1	0
30	3532	1	0
30	3536	1	0
30	3540	1	0
30	3543	1	0
30	3569	1	0
30	3581	1	0
30	3592	1	0
30	3615	1	0
30	3621	1	0
30	3629	1	0
30	3633	1	0
30	3639	1	0
30	3642	1	0
30	3645	1	0
30	3658	1	0
30	3665	1	0
30	3666	1	0
30	3669	1	0
30	3671	1	0
30	3696	1	0
30	3707	1	0
30	3710	1	0
30	3713	1	0
30	3724	1	0
30	3725	1	0
30	3749	1	0
30	3757	1	0
30	3779	1	0
30	3788	1	0
30	3802	1	0
30	3807	1	0
30	3808	1	0
30	3817	1	0
30	3835	1	0
30	3836	1	0
30	3849	1	0
30	3850	1	0
30	3883	1	0
30	3885	1	0
30	3888	1	0
30	3894	1	0
30	3904	1	0
30	3921	1	0
30	3924	1	0
30	3927	1	0
30	3933	1	0
30	3948	1	0
30	3951	1	0
30	3955	1	0
30	3969	1	0
30	3974	1	0
30	3976	1	0
30	3977	1	0
30	3984	1	0
30	3988	1	0
30	3990	1	0
31	3211	1	0
31	3220	1	0
31	3223	1	0
31	3238	1	0
31	3244	1	0
31	3263	1	0
31	3269	1	0
31	3279	1	0
31	3288	1	0
31	3311	1	0
31	3318	1	0
31	3322	1	0
31	3341	1	0
31	3361	1	0
31	3363	1	0
31	3382	1	0
31	3389	1	0
31	3394	1	0
31	3399	1	0
31	3429	1	0
31	3430	1	0
31	3444	1	0
31	3454	1	0
31	3455	1	0
31	3459	1	0
31	3460	1	0
31	3478	1	0
31	3482	1	0
31	3483	1	0
31	3485	1	0
31	3486	1	0
31	3488	1	0
31	3489	1	0
31	3492	1	0
31	3507	1	0
31	3512	1	0
31	3514	1	0
31	3524	1	0
31	3526	1	0
31	3530	1	0
31	3544	1	0
31	3546	1	0
31	3551	1	0
31	3564	1	0
31	3591	1	0
31	3599	1	0
31	3600	1	0
31	3609	1	0
31	3611	1	0
31	3614	1	0
31	3625	1	0
31	3631	1	0
31	3646	1	0
31	3657	1	0
31	3673	1	0
31	3674	1	0
31	3677	1	0
31	3698	1	0
31	3708	1	0
31	3717	1	0
31	3730	1	0
31	3734	1	0
31	3743	1	0
31	3744	1	0
31	3765	1	0
31	3785	1	0
31	3791	1	0
31	3816	1	0
31	3823	1	0
31	3830	1	0
31	3842	1	0
31	3843	1	0
31	3856	1	0
31	3861	1	0
31	3865	1	0
31	3893	1	0
31	3896	1	0
31	3913	1	0
31	3920	1	0
31	3929	1	0
31	3942	1	0
31	3946	1	0
31	3947	1	0
31	3961	1	0
31	3963	1	0
31	3965	1	0
31	3986	1	0
31	4001	1	0
31	4002	1	0
