file 3229 1327668606                                            
version 2
run WhiteRabbitSwitch7-0-20120127-13:50:05-672
attr configname WhiteRabbitSwitch7
attr datetime 20120127-13:50:05
attr experiment WhiteRabbitSwitch7
attr inifile omnetpp.ini
attr iterationvars ""
attr iterationvars2 $repetition=0
attr measurement ""
attr network WhiteRabbitSwitch7
attr processid 672
attr repetition 0
attr replication #0
attr resultdir results
attr runnumber 0
attr seedset 0

vector 113  WhiteRabbitSwitch7.wrQueue0  queueLength:vector  ETV
attr interpolationmode  sample-hold
attr title  "queue length, vector"
vector 114  WhiteRabbitSwitch7.wrQueue1  queueLength:vector  ETV
attr interpolationmode  sample-hold
attr title  "queue length, vector"
vector 115  WhiteRabbitSwitch7.wrQueue2  queueLength:vector  ETV
attr interpolationmode  sample-hold
attr title  "queue length, vector"
vector 116  WhiteRabbitSwitch7.wrQueue3  queueLength:vector  ETV
attr interpolationmode  sample-hold
attr title  "queue length, vector"
vector 117  WhiteRabbitSwitch7.wrQueue4  queueLength:vector  ETV
attr interpolationmode  sample-hold
attr title  "queue length, vector"
vector 118  WhiteRabbitSwitch7.wrQueue5  queueLength:vector  ETV
attr interpolationmode  sample-hold
attr title  "queue length, vector"
vector 119  WhiteRabbitSwitch7.wrQueue6  queueLength:vector  ETV
attr interpolationmode  sample-hold
attr title  "queue length, vector"
vector 120  WhiteRabbitSwitch7.wrQueue7  queueLength:vector  ETV
attr interpolationmode  sample-hold
attr title  "queue length, vector"
vector 121  WhiteRabbitSwitch7.out1  lifeTime:vector  ETV
attr interpolationmode  none
attr title  "lifetime of arrived jobs, vector"
attr unit  s
vector 112  WhiteRabbitSwitch7.out0  lifeTime:vector  ETV
attr interpolationmode  none
attr title  "lifetime of arrived jobs, vector"
attr unit  s
vector 124  WhiteRabbitSwitch7.out4  lifeTime:vector  ETV
attr interpolationmode  none
attr title  "lifetime of arrived jobs, vector"
attr unit  s
vector 123  WhiteRabbitSwitch7.out3  lifeTime:vector  ETV
attr interpolationmode  none
attr title  "lifetime of arrived jobs, vector"
attr unit  s
vector 125  WhiteRabbitSwitch7.out5  lifeTime:vector  ETV
attr interpolationmode  none
attr title  "lifetime of arrived jobs, vector"
attr unit  s
vector 127  WhiteRabbitSwitch7.out7  lifeTime:vector  ETV
attr interpolationmode  none
attr title  "lifetime of arrived jobs, vector"
attr unit  s
vector 122  WhiteRabbitSwitch7.out2  lifeTime:vector  ETV
attr interpolationmode  none
attr title  "lifetime of arrived jobs, vector"
attr unit  s
vector 126  WhiteRabbitSwitch7.out6  lifeTime:vector  ETV
attr interpolationmode  none
attr title  "lifetime of arrived jobs, vector"
attr unit  s
112	2669 60 290 323 1 1 5 0 0 0 0
113	2729 10 0 0 0 0 1 0 0 0 0
114	2739 10 0 0 0 0 1 0 0 0 0
115	2749 10 0 0 0 0 1 0 0 0 0
116	2759 10 0 0 0 0 1 0 0 0 0
117	2769 10 0 0 0 0 1 0 0 0 0
118	2779 10 0 0 0 0 1 0 0 0 0
119	2789 10 0 0 0 0 1 0 0 0 0
120	2799 10 0 0 0 0 1 0 0 0 0
121	2809 72 289 326 1 1 6 0 0 0 0
122	2881 36 302 317 1 1 3 0 0 0 0
123	2917 48 293 327 1 1 4 0 0 0 0
124	2965 72 291 324 1 1 6 0 0 0 0
125	3037 84 295 328 1 1 7 0 0 0 0
126	3121 36 307 316 1 1 3 0 0 0 0
127	3157 72 300 325 1 1 6 0 0 0 0
