file 3571 1327588972                                            
version 2
run WhiteRabbitSwitch7-0-20120126-15:42:49-22147
attr configname WhiteRabbitSwitch7
attr datetime 20120126-15:42:49
attr experiment WhiteRabbitSwitch7
attr inifile omnetpp.ini
attr iterationvars ""
attr iterationvars2 $repetition=0
attr measurement ""
attr network WhiteRabbitSwitch7
attr processid 22147
attr repetition 0
attr replication #0
attr resultdir results
attr runnumber 0
attr seedset 0

vector 1  WhiteRabbitSwitch7.wrQueue0  queueLength:vector  ETV
attr interpolationmode  sample-hold
attr title  "queue length, vector"
vector 2  WhiteRabbitSwitch7.wrQueue1  queueLength:vector  ETV
attr interpolationmode  sample-hold
attr title  "queue length, vector"
vector 3  WhiteRabbitSwitch7.wrQueue2  queueLength:vector  ETV
attr interpolationmode  sample-hold
attr title  "queue length, vector"
vector 4  WhiteRabbitSwitch7.wrQueue3  queueLength:vector  ETV
attr interpolationmode  sample-hold
attr title  "queue length, vector"
vector 5  WhiteRabbitSwitch7.wrQueue4  queueLength:vector  ETV
attr interpolationmode  sample-hold
attr title  "queue length, vector"
vector 6  WhiteRabbitSwitch7.wrQueue5  queueLength:vector  ETV
attr interpolationmode  sample-hold
attr title  "queue length, vector"
vector 7  WhiteRabbitSwitch7.wrQueue6  queueLength:vector  ETV
attr interpolationmode  sample-hold
attr title  "queue length, vector"
vector 8  WhiteRabbitSwitch7.wrQueue7  queueLength:vector  ETV
attr interpolationmode  sample-hold
attr title  "queue length, vector"
vector 0  WhiteRabbitSwitch7.out0  lifeTime:vector  ETV
attr interpolationmode  none
attr title  "lifetime of arrived jobs, vector"
attr unit  s
vector 9  WhiteRabbitSwitch7.out1  lifeTime:vector  ETV
attr interpolationmode  none
attr title  "lifetime of arrived jobs, vector"
attr unit  s
vector 10  WhiteRabbitSwitch7.out2  lifeTime:vector  ETV
attr interpolationmode  none
attr title  "lifetime of arrived jobs, vector"
attr unit  s
vector 11  WhiteRabbitSwitch7.out3  lifeTime:vector  ETV
attr interpolationmode  none
attr title  "lifetime of arrived jobs, vector"
attr unit  s
vector 12  WhiteRabbitSwitch7.out4  lifeTime:vector  ETV
attr interpolationmode  none
attr title  "lifetime of arrived jobs, vector"
attr unit  s
vector 13  WhiteRabbitSwitch7.out5  lifeTime:vector  ETV
attr interpolationmode  none
attr title  "lifetime of arrived jobs, vector"
attr unit  s
vector 14  WhiteRabbitSwitch7.out6  lifeTime:vector  ETV
attr interpolationmode  none
attr title  "lifetime of arrived jobs, vector"
attr unit  s
vector 15  WhiteRabbitSwitch7.out7  lifeTime:vector  ETV
attr interpolationmode  none
attr title  "lifetime of arrived jobs, vector"
attr unit  s
0	2647 100 329 401 1 1 10 0 0 0 0
1	2747 8 0 0 0 0 1 0 0 0 0
2	2755 8 0 0 0 0 1 0 0 0 0
3	2763 8 0 0 0 0 1 0 0 0 0
4	2771 8 0 0 0 0 1 0 0 0 0
5	2779 8 0 0 0 0 1 0 0 0 0
6	2787 8 0 0 0 0 1 0 0 0 0
7	2795 8 0 0 0 0 1 0 0 0 0
8	2803 8 0 0 0 0 1 0 0 0 0
9	2811 100 330 402 1 1 10 0 0 0 0
10	2911 110 331 403 1 1 10 0 0 0 0
11	3021 110 332 404 1 1 10 0 0 0 0
12	3131 110 333 405 1 1 10 0 0 0 0
13	3241 110 334 406 1 1 10 0 0 0 0
14	3351 110 335 407 1 1 10 0 0 0 0
15	3461 110 336 408 1 1 10 0 0 0 0
