file 3960 1326981449                                            
version 2
run WhiteRabbitSwitch6-0-20120119-14:55:48-29647
attr configname WhiteRabbitSwitch6
attr datetime 20120119-14:55:48
attr experiment WhiteRabbitSwitch6
attr inifile omnetpp.ini
attr iterationvars ""
attr iterationvars2 $repetition=0
attr measurement ""
attr network WhiteRabbitSwitch6
attr processid 29647
attr repetition 0
attr replication #0
attr resultdir results
attr runnumber 0
attr seedset 0

vector 1  WhiteRabbitSwitch6.wrQueue0  queueLength:vector  ETV
attr interpolationmode  sample-hold
attr title  "queue length, vector"
vector 9  WhiteRabbitSwitch6.wrQueue1  queueLength:vector  ETV
attr interpolationmode  sample-hold
attr title  "queue length, vector"
vector 10  WhiteRabbitSwitch6.wrQueue2  queueLength:vector  ETV
attr interpolationmode  sample-hold
attr title  "queue length, vector"
vector 11  WhiteRabbitSwitch6.wrQueue3  queueLength:vector  ETV
attr interpolationmode  sample-hold
attr title  "queue length, vector"
vector 12  WhiteRabbitSwitch6.wrQueue4  queueLength:vector  ETV
attr interpolationmode  sample-hold
attr title  "queue length, vector"
vector 13  WhiteRabbitSwitch6.wrQueue5  queueLength:vector  ETV
attr interpolationmode  sample-hold
attr title  "queue length, vector"
vector 14  WhiteRabbitSwitch6.wrQueue6  queueLength:vector  ETV
attr interpolationmode  sample-hold
attr title  "queue length, vector"
vector 15  WhiteRabbitSwitch6.wrQueue7  queueLength:vector  ETV
attr interpolationmode  sample-hold
attr title  "queue length, vector"
vector 8  WhiteRabbitSwitch6.out7  lifeTime:vector  ETV
attr interpolationmode  none
attr title  "lifetime of arrived jobs, vector"
attr unit  s
1	1632 283 0 144 0 30.280863675145 13 0 6 37 147
8	1915 461 11 157 1.591749009131 30.280863675145 20 0 0 0 0
9	2376 238 0 145 0 30.280863675145 11 0 6 28 106
10	2614 247 0 146 0 30.280863675145 11 0 6 28 106
11	2861 222 0 134 0 29.777979810996 10 0 6 25 97
12	3083 251 0 148 0 30.280863675145 11 0 6 31 121
13	3334 249 0 149 0 30.280863675145 11 0 6 28 106
14	3583 202 0 137 0 29.777979810996 9 0 6 24 96
15	3785 175 0 112 0 22.86307924934 8 0 6 22 92
