version 2
run WhiteRabbitSwitch7-0-20120127-13:18:16-10402
attr configname WhiteRabbitSwitch7
attr datetime 20120127-13:18:16
attr experiment WhiteRabbitSwitch7
attr inifile omnetpp.ini
attr iterationvars ""
attr iterationvars2 $repetition=0
attr measurement ""
attr network WhiteRabbitSwitch7
attr processid 10402
attr repetition 0
attr replication #0
attr resultdir results
attr runnumber 0
attr seedset 0

vector 1  WhiteRabbitSwitch7.wrQueue0  queueLength:vector  ETV
attr interpolationmode  sample-hold
attr title  "queue length, vector"
vector 2  WhiteRabbitSwitch7.wrQueue1  queueLength:vector  ETV
attr interpolationmode  sample-hold
attr title  "queue length, vector"
vector 3  WhiteRabbitSwitch7.wrQueue2  queueLength:vector  ETV
attr interpolationmode  sample-hold
attr title  "queue length, vector"
vector 4  WhiteRabbitSwitch7.wrQueue3  queueLength:vector  ETV
attr interpolationmode  sample-hold
attr title  "queue length, vector"
vector 5  WhiteRabbitSwitch7.wrQueue4  queueLength:vector  ETV
attr interpolationmode  sample-hold
attr title  "queue length, vector"
vector 6  WhiteRabbitSwitch7.wrQueue5  queueLength:vector  ETV
attr interpolationmode  sample-hold
attr title  "queue length, vector"
vector 7  WhiteRabbitSwitch7.wrQueue6  queueLength:vector  ETV
attr interpolationmode  sample-hold
attr title  "queue length, vector"
vector 8  WhiteRabbitSwitch7.wrQueue7  queueLength:vector  ETV
attr interpolationmode  sample-hold
attr title  "queue length, vector"
vector 14  WhiteRabbitSwitch7.out6  lifeTime:vector  ETV
attr interpolationmode  none
attr title  "lifetime of arrived jobs, vector"
attr unit  s
vector 11  WhiteRabbitSwitch7.out3  lifeTime:vector  ETV
attr interpolationmode  none
attr title  "lifetime of arrived jobs, vector"
attr unit  s
vector 15  WhiteRabbitSwitch7.out7  lifeTime:vector  ETV
attr interpolationmode  none
attr title  "lifetime of arrived jobs, vector"
attr unit  s
vector 9  WhiteRabbitSwitch7.out1  lifeTime:vector  ETV
attr interpolationmode  none
attr title  "lifetime of arrived jobs, vector"
attr unit  s
vector 10  WhiteRabbitSwitch7.out2  lifeTime:vector  ETV
attr interpolationmode  none
attr title  "lifetime of arrived jobs, vector"
attr unit  s
vector 12  WhiteRabbitSwitch7.out4  lifeTime:vector  ETV
attr interpolationmode  none
attr title  "lifetime of arrived jobs, vector"
attr unit  s
vector 13  WhiteRabbitSwitch7.out5  lifeTime:vector  ETV
attr interpolationmode  none
attr title  "lifetime of arrived jobs, vector"
attr unit  s
vector 0  WhiteRabbitSwitch7.out0  lifeTime:vector  ETV
attr interpolationmode  none
attr title  "lifetime of arrived jobs, vector"
attr unit  s
0	349	1	0
0	356	1	0
0	377	1	0
0	380	1	0
0	385	1	0
0	386	1	0
0	388	1	0
0	400	1	0
1	0	0	0
2	0	0	0
3	0	0	0
4	0	0	0
5	0	0	0
6	0	0	0
7	0	0	0
8	0	0	0
9	334	1	0
9	347	1	0
9	350	1	0
9	351	1	0
9	353	1	0
9	355	1	0
9	358	1	0
9	381	1	0
9	389	1	0
10	335	1	0
10	337	1	0
10	341	1	0
10	362	1	0
10	367	1	0
10	373	1	0
10	374	1	0
10	384	1	0
10	393	1	0
10	405	1	0
10	408	1	0
11	330	1	0
11	339	1	0
11	354	1	0
11	365	1	0
11	371	1	0
11	387	1	0
11	395	1	0
11	401	1	0
12	338	1	0
12	342	1	0
12	348	1	0
12	359	1	0
12	361	1	0
12	364	1	0
12	369	1	0
12	379	1	0
12	394	1	0
12	397	1	0
12	399	1	0
13	340	1	0
13	345	1	0
13	346	1	0
13	363	1	0
13	382	1	0
13	398	1	0
13	404	1	0
13	406	1	0
13	407	1	0
14	329	1	0
14	331	1	0
14	332	1	0
14	336	1	0
14	352	1	0
14	360	1	0
14	368	1	0
14	370	1	0
14	375	1	0
14	392	1	0
14	396	1	0
15	333	1	0
15	343	1	0
15	344	1	0
15	357	1	0
15	366	1	0
15	372	1	0
15	376	1	0
15	378	1	0
15	383	1	0
15	390	1	0
15	391	1	0
15	402	1	0
15	403	1	0
