file 12327 1328006407                                           
version 2
run WhiteRabbitSwitch7-0-20120131-11:40:05-1855
attr configname WhiteRabbitSwitch7
attr datetime 20120131-11:40:05
attr experiment WhiteRabbitSwitch7
attr inifile omnetpp.ini
attr iterationvars ""
attr iterationvars2 $repetition=0
attr measurement ""
attr network WhiteRabbitSwitch7
attr processid 1855
attr repetition 0
attr replication #0
attr resultdir results
attr runnumber 0
attr seedset 0

vector 17  WhiteRabbitSwitch7.wrQueue0  queueLength:vector  ETV
attr interpolationmode  sample-hold
attr title  "queue length, vector"
vector 18  WhiteRabbitSwitch7.wrQueue1  queueLength:vector  ETV
attr interpolationmode  sample-hold
attr title  "queue length, vector"
vector 19  WhiteRabbitSwitch7.wrQueue2  queueLength:vector  ETV
attr interpolationmode  sample-hold
attr title  "queue length, vector"
vector 20  WhiteRabbitSwitch7.wrQueue3  queueLength:vector  ETV
attr interpolationmode  sample-hold
attr title  "queue length, vector"
vector 21  WhiteRabbitSwitch7.wrQueue4  queueLength:vector  ETV
attr interpolationmode  sample-hold
attr title  "queue length, vector"
vector 22  WhiteRabbitSwitch7.wrQueue5  queueLength:vector  ETV
attr interpolationmode  sample-hold
attr title  "queue length, vector"
vector 23  WhiteRabbitSwitch7.wrQueue6  queueLength:vector  ETV
attr interpolationmode  sample-hold
attr title  "queue length, vector"
vector 24  WhiteRabbitSwitch7.wrQueue7  queueLength:vector  ETV
attr interpolationmode  sample-hold
attr title  "queue length, vector"
vector 16  WhiteRabbitSwitch7.out0  lifeTime:vector  ETV
attr interpolationmode  none
attr title  "lifetime of arrived jobs, vector"
attr unit  s
vector 30  WhiteRabbitSwitch7.out6  lifeTime:vector  ETV
attr interpolationmode  none
attr title  "lifetime of arrived jobs, vector"
attr unit  s
vector 31  WhiteRabbitSwitch7.out7  lifeTime:vector  ETV
attr interpolationmode  none
attr title  "lifetime of arrived jobs, vector"
attr unit  s
vector 26  WhiteRabbitSwitch7.out2  lifeTime:vector  ETV
attr interpolationmode  none
attr title  "lifetime of arrived jobs, vector"
attr unit  s
vector 25  WhiteRabbitSwitch7.out1  lifeTime:vector  ETV
attr interpolationmode  none
attr title  "lifetime of arrived jobs, vector"
attr unit  s
vector 29  WhiteRabbitSwitch7.out5  lifeTime:vector  ETV
attr interpolationmode  none
attr title  "lifetime of arrived jobs, vector"
attr unit  s
vector 27  WhiteRabbitSwitch7.out3  lifeTime:vector  ETV
attr interpolationmode  none
attr title  "lifetime of arrived jobs, vector"
attr unit  s
vector 28  WhiteRabbitSwitch7.out4  lifeTime:vector  ETV
attr interpolationmode  none
attr title  "lifetime of arrived jobs, vector"
attr unit  s
16	2655 1308 3209 4003 1 1 109 0 0 0 0
17	3963 9 0 0 0 0 1 0 0 0 0
18	3972 9 0 0 0 0 1 0 0 0 0
19	3981 9 0 0 0 0 1 0 0 0 0
20	3990 9 0 0 0 0 1 0 0 0 0
21	3999 9 0 0 0 0 1 0 0 0 0
22	4008 9 0 0 0 0 1 0 0 0 0
23	4017 9 0 0 0 0 1 0 0 0 0
24	4026 9 0 0 0 0 1 0 0 0 0
25	4035 1188 3214 3995 1 1 99 0 0 0 0
26	5223 1140 3213 4007 1 1 95 0 0 0 0
27	6363 1200 3227 3992 1 1 100 0 0 0 0
28	7563 1236 3231 4008 1 1 103 0 0 0 0
29	8799 1284 3217 4005 1 1 107 0 0 0 0
30	10083 1176 3210 3990 1 1 98 0 0 0 0
31	11259 1068 3211 4002 1 1 89 0 0 0 0
