version 2
run WhiteRabbitSwitch8-0-20120209-14:45:11-10444
attr configname WhiteRabbitSwitch8
attr datetime 20120209-14:45:11
attr experiment WhiteRabbitSwitch8
attr inifile omnetpp.ini
attr iterationvars ""
attr iterationvars2 $repetition=0
attr measurement ""
attr network WhiteRabbitSwitch8
attr processid 10444
attr repetition 0
attr replication #0
attr resultdir results
attr runnumber 0
attr seedset 0

vector 40  WhiteRabbitSwitch8.wrSi.wrQueue0  queueLength:vector  ETV
attr interpolationmode  sample-hold
attr title  "queue length, vector"
vector 41  WhiteRabbitSwitch8.wrSi.wrQueue1  queueLength:vector  ETV
attr interpolationmode  sample-hold
attr title  "queue length, vector"
vector 42  WhiteRabbitSwitch8.wrSi.wrQueue2  queueLength:vector  ETV
attr interpolationmode  sample-hold
attr title  "queue length, vector"
vector 43  WhiteRabbitSwitch8.wrSi.wrQueue3  queueLength:vector  ETV
attr interpolationmode  sample-hold
attr title  "queue length, vector"
vector 44  WhiteRabbitSwitch8.wrSi.wrQueue4  queueLength:vector  ETV
attr interpolationmode  sample-hold
attr title  "queue length, vector"
vector 45  WhiteRabbitSwitch8.wrSi.wrQueue5  queueLength:vector  ETV
attr interpolationmode  sample-hold
attr title  "queue length, vector"
vector 46  WhiteRabbitSwitch8.wrSi.wrQueue6  queueLength:vector  ETV
attr interpolationmode  sample-hold
attr title  "queue length, vector"
vector 47  WhiteRabbitSwitch8.wrSi.wrQueue7  queueLength:vector  ETV
attr interpolationmode  sample-hold
attr title  "queue length, vector"
vector 36  WhiteRabbitSwitch8.out4  lifeTime:vector  ETV
attr interpolationmode  none
attr title  "lifetime of arrived jobs, vector"
attr unit  s
vector 32  WhiteRabbitSwitch8.out0  lifeTime:vector  ETV
attr interpolationmode  none
attr title  "lifetime of arrived jobs, vector"
attr unit  s
vector 39  WhiteRabbitSwitch8.out7  lifeTime:vector  ETV
attr interpolationmode  none
attr title  "lifetime of arrived jobs, vector"
attr unit  s
vector 38  WhiteRabbitSwitch8.out6  lifeTime:vector  ETV
attr interpolationmode  none
attr title  "lifetime of arrived jobs, vector"
attr unit  s
vector 33  WhiteRabbitSwitch8.out1  lifeTime:vector  ETV
attr interpolationmode  none
attr title  "lifetime of arrived jobs, vector"
attr unit  s
vector 34  WhiteRabbitSwitch8.out2  lifeTime:vector  ETV
attr interpolationmode  none
attr title  "lifetime of arrived jobs, vector"
attr unit  s
vector 37  WhiteRabbitSwitch8.out5  lifeTime:vector  ETV
attr interpolationmode  none
attr title  "lifetime of arrived jobs, vector"
attr unit  s
vector 35  WhiteRabbitSwitch8.out3  lifeTime:vector  ETV
attr interpolationmode  none
attr title  "lifetime of arrived jobs, vector"
attr unit  s
32	290	1	0
32	295	1	0
32	306	1	0
32	318	1	0
33	297	1	0
33	312	1	0
33	319	1	0
34	299	1	0
34	303	1	0
34	317	1	0
34	321	1	0
34	325	1	0
34	327	1	0
35	323	1	0
35	326	1	0
36	289	1	0
36	296	1	0
36	300	1	0
36	302	1	0
36	304	1	0
36	320	1	0
37	301	1	0
37	305	1	0
37	311	1	0
37	314	1	0
37	315	1	0
37	316	1	0
37	322	1	0
38	294	1	0
38	307	1	0
38	308	1	0
38	328	1	0
39	291	1	0
39	292	1	0
39	293	1	0
39	298	1	0
39	309	1	0
39	310	1	0
39	313	1	0
39	324	1	0
40	0	0	0
41	0	0	0
42	0	0	0
43	0	0	0
44	0	0	0
45	0	0	0
46	0	0	0
47	0	0	0
