version 2
run WhiteRabbitSwitch7-0-20120126-16:41:15-891
attr configname WhiteRabbitSwitch7
attr datetime 20120126-16:41:15
attr experiment WhiteRabbitSwitch7
attr inifile omnetpp.ini
attr iterationvars ""
attr iterationvars2 $repetition=0
attr measurement ""
attr network WhiteRabbitSwitch7
attr processid 891
attr repetition 0
attr replication #0
attr resultdir results
attr runnumber 0
attr seedset 0

vector 1  WhiteRabbitSwitch7.wrQueue0  queueLength:vector  ETV
attr interpolationmode  sample-hold
attr title  "queue length, vector"
vector 2  WhiteRabbitSwitch7.wrQueue1  queueLength:vector  ETV
attr interpolationmode  sample-hold
attr title  "queue length, vector"
vector 3  WhiteRabbitSwitch7.wrQueue2  queueLength:vector  ETV
attr interpolationmode  sample-hold
attr title  "queue length, vector"
vector 4  WhiteRabbitSwitch7.wrQueue3  queueLength:vector  ETV
attr interpolationmode  sample-hold
attr title  "queue length, vector"
vector 5  WhiteRabbitSwitch7.wrQueue4  queueLength:vector  ETV
attr interpolationmode  sample-hold
attr title  "queue length, vector"
vector 6  WhiteRabbitSwitch7.wrQueue5  queueLength:vector  ETV
attr interpolationmode  sample-hold
attr title  "queue length, vector"
vector 7  WhiteRabbitSwitch7.wrQueue6  queueLength:vector  ETV
attr interpolationmode  sample-hold
attr title  "queue length, vector"
vector 8  WhiteRabbitSwitch7.wrQueue7  queueLength:vector  ETV
attr interpolationmode  sample-hold
attr title  "queue length, vector"
vector 0  WhiteRabbitSwitch7.out0  lifeTime:vector  ETV
attr interpolationmode  none
attr title  "lifetime of arrived jobs, vector"
attr unit  s
vector 9  WhiteRabbitSwitch7.out1  lifeTime:vector  ETV
attr interpolationmode  none
attr title  "lifetime of arrived jobs, vector"
attr unit  s
vector 10  WhiteRabbitSwitch7.out2  lifeTime:vector  ETV
attr interpolationmode  none
attr title  "lifetime of arrived jobs, vector"
attr unit  s
vector 11  WhiteRabbitSwitch7.out3  lifeTime:vector  ETV
attr interpolationmode  none
attr title  "lifetime of arrived jobs, vector"
attr unit  s
vector 12  WhiteRabbitSwitch7.out4  lifeTime:vector  ETV
attr interpolationmode  none
attr title  "lifetime of arrived jobs, vector"
attr unit  s
vector 13  WhiteRabbitSwitch7.out5  lifeTime:vector  ETV
attr interpolationmode  none
attr title  "lifetime of arrived jobs, vector"
attr unit  s
vector 14  WhiteRabbitSwitch7.out6  lifeTime:vector  ETV
attr interpolationmode  none
attr title  "lifetime of arrived jobs, vector"
attr unit  s
vector 15  WhiteRabbitSwitch7.out7  lifeTime:vector  ETV
attr interpolationmode  none
attr title  "lifetime of arrived jobs, vector"
attr unit  s
0	329	1	0
0	337	1	0
0	345	1	0
0	353	1	0
0	361	1	0
0	369	1	0
0	377	1	0
0	385	1	0
0	393	1	0
0	401	1	0
1	0	0	0
2	0	0	0
3	0	0	0
4	0	0	0
5	0	0	0
6	0	0	0
7	0	0	0
8	0	0	0
9	330	1	0
9	338	1	0
9	346	1	0
9	354	1	0
9	362	1	0
9	370	1	0
9	378	1	0
9	386	1	0
9	394	1	0
9	402	1	0
10	331	1	0
10	339	1	0
10	347	1	0
10	355	1	0
10	363	1	0
10	371	1	0
10	379	1	0
10	387	1	0
10	395	1	0
10	403	1	0
11	332	1	0
11	340	1	0
11	348	1	0
11	356	1	0
11	364	1	0
11	372	1	0
11	380	1	0
11	388	1	0
11	396	1	0
11	404	1	0
12	333	1	0
12	341	1	0
12	349	1	0
12	357	1	0
12	365	1	0
12	373	1	0
12	381	1	0
12	389	1	0
12	397	1	0
12	405	1	0
13	334	1	0
13	342	1	0
13	350	1	0
13	358	1	0
13	366	1	0
13	374	1	0
13	382	1	0
13	390	1	0
13	398	1	0
13	406	1	0
14	335	1	0
14	343	1	0
14	351	1	0
14	359	1	0
14	367	1	0
14	375	1	0
14	383	1	0
14	391	1	0
14	399	1	0
14	407	1	0
15	336	1	0
15	344	1	0
15	352	1	0
15	360	1	0
15	368	1	0
15	376	1	0
15	384	1	0
15	392	1	0
15	400	1	0
15	408	1	0
