file 3902 1327331647                                            
version 2
run WhiteRabbitSwitch6-0-20120123-16:14:01-9992
attr configname WhiteRabbitSwitch6
attr datetime 20120123-16:14:01
attr experiment WhiteRabbitSwitch6
attr inifile omnetpp.ini
attr iterationvars ""
attr iterationvars2 $repetition=0
attr measurement ""
attr network WhiteRabbitSwitch6
attr processid 9992
attr repetition 0
attr replication #0
attr resultdir results
attr runnumber 0
attr seedset 0

vector 1  WhiteRabbitSwitch6.wrQueue0  queueLength:vector  ETV
attr interpolationmode  sample-hold
attr title  "queue length, vector"
vector 9  WhiteRabbitSwitch6.wrQueue1  queueLength:vector  ETV
attr interpolationmode  sample-hold
attr title  "queue length, vector"
vector 10  WhiteRabbitSwitch6.wrQueue2  queueLength:vector  ETV
attr interpolationmode  sample-hold
attr title  "queue length, vector"
vector 11  WhiteRabbitSwitch6.wrQueue3  queueLength:vector  ETV
attr interpolationmode  sample-hold
attr title  "queue length, vector"
vector 12  WhiteRabbitSwitch6.wrQueue4  queueLength:vector  ETV
attr interpolationmode  sample-hold
attr title  "queue length, vector"
vector 13  WhiteRabbitSwitch6.wrQueue5  queueLength:vector  ETV
attr interpolationmode  sample-hold
attr title  "queue length, vector"
vector 14  WhiteRabbitSwitch6.wrQueue6  queueLength:vector  ETV
attr interpolationmode  sample-hold
attr title  "queue length, vector"
vector 15  WhiteRabbitSwitch6.wrQueue7  queueLength:vector  ETV
attr interpolationmode  sample-hold
attr title  "queue length, vector"
vector 8  WhiteRabbitSwitch6.out7  lifeTime:vector  ETV
attr interpolationmode  none
attr title  "lifetime of arrived jobs, vector"
attr unit  s
1	1630 276 0 139 0 1.591749009131 13 0 2 14 18
8	1906 453 32 158 1.591749009131 1.591749009131 20 0 0 0 0
9	2359 231 0 140 0 1.591749009131 11 0 2 11 13
10	2590 241 0 141 0 1.591749009131 11 0 2 11 13
11	2831 218 0 129 0 1.591749009131 10 0 2 10 12
12	3049 243 0 143 0 1.591749009131 11 0 2 11 13
13	3292 243 0 144 0 1.591749009131 11 0 2 11 13
14	3535 196 0 132 0 1.591749009131 9 0 2 10 14
15	3731 171 0 111 0 1.591749009131 8 0 2 8 10
