version 2
run WhiteRabbitSwitch7-0-20120127-13:50:05-672
attr configname WhiteRabbitSwitch7
attr datetime 20120127-13:50:05
attr experiment WhiteRabbitSwitch7
attr inifile omnetpp.ini
attr iterationvars ""
attr iterationvars2 $repetition=0
attr measurement ""
attr network WhiteRabbitSwitch7
attr processid 672
attr repetition 0
attr replication #0
attr resultdir results
attr runnumber 0
attr seedset 0

vector 113  WhiteRabbitSwitch7.wrQueue0  queueLength:vector  ETV
attr interpolationmode  sample-hold
attr title  "queue length, vector"
vector 114  WhiteRabbitSwitch7.wrQueue1  queueLength:vector  ETV
attr interpolationmode  sample-hold
attr title  "queue length, vector"
vector 115  WhiteRabbitSwitch7.wrQueue2  queueLength:vector  ETV
attr interpolationmode  sample-hold
attr title  "queue length, vector"
vector 116  WhiteRabbitSwitch7.wrQueue3  queueLength:vector  ETV
attr interpolationmode  sample-hold
attr title  "queue length, vector"
vector 117  WhiteRabbitSwitch7.wrQueue4  queueLength:vector  ETV
attr interpolationmode  sample-hold
attr title  "queue length, vector"
vector 118  WhiteRabbitSwitch7.wrQueue5  queueLength:vector  ETV
attr interpolationmode  sample-hold
attr title  "queue length, vector"
vector 119  WhiteRabbitSwitch7.wrQueue6  queueLength:vector  ETV
attr interpolationmode  sample-hold
attr title  "queue length, vector"
vector 120  WhiteRabbitSwitch7.wrQueue7  queueLength:vector  ETV
attr interpolationmode  sample-hold
attr title  "queue length, vector"
vector 121  WhiteRabbitSwitch7.out1  lifeTime:vector  ETV
attr interpolationmode  none
attr title  "lifetime of arrived jobs, vector"
attr unit  s
vector 112  WhiteRabbitSwitch7.out0  lifeTime:vector  ETV
attr interpolationmode  none
attr title  "lifetime of arrived jobs, vector"
attr unit  s
vector 124  WhiteRabbitSwitch7.out4  lifeTime:vector  ETV
attr interpolationmode  none
attr title  "lifetime of arrived jobs, vector"
attr unit  s
vector 123  WhiteRabbitSwitch7.out3  lifeTime:vector  ETV
attr interpolationmode  none
attr title  "lifetime of arrived jobs, vector"
attr unit  s
vector 125  WhiteRabbitSwitch7.out5  lifeTime:vector  ETV
attr interpolationmode  none
attr title  "lifetime of arrived jobs, vector"
attr unit  s
vector 127  WhiteRabbitSwitch7.out7  lifeTime:vector  ETV
attr interpolationmode  none
attr title  "lifetime of arrived jobs, vector"
attr unit  s
vector 122  WhiteRabbitSwitch7.out2  lifeTime:vector  ETV
attr interpolationmode  none
attr title  "lifetime of arrived jobs, vector"
attr unit  s
vector 126  WhiteRabbitSwitch7.out6  lifeTime:vector  ETV
attr interpolationmode  none
attr title  "lifetime of arrived jobs, vector"
attr unit  s
112	290	1	0
112	294	1	0
112	320	1	0
112	322	1	0
112	323	1	0
113	0	0	0
114	0	0	0
115	0	0	0
116	0	0	0
117	0	0	0
118	0	0	0
119	0	0	0
120	0	0	0
121	289	1	0
121	296	1	0
121	303	1	0
121	306	1	0
121	315	1	0
121	326	1	0
122	302	1	0
122	310	1	0
122	317	1	0
123	293	1	0
123	299	1	0
123	313	1	0
123	327	1	0
124	291	1	0
124	292	1	0
124	311	1	0
124	312	1	0
124	321	1	0
124	324	1	0
125	295	1	0
125	297	1	0
125	298	1	0
125	314	1	0
125	318	1	0
125	319	1	0
125	328	1	0
126	307	1	0
126	309	1	0
126	316	1	0
127	300	1	0
127	301	1	0
127	304	1	0
127	305	1	0
127	308	1	0
127	325	1	0
