version 2
run WhiteRabbitSwitch6-0-20120119-14:55:48-29647
attr configname WhiteRabbitSwitch6
attr datetime 20120119-14:55:48
attr experiment WhiteRabbitSwitch6
attr inifile omnetpp.ini
attr iterationvars ""
attr iterationvars2 $repetition=0
attr measurement ""
attr network WhiteRabbitSwitch6
attr processid 29647
attr repetition 0
attr replication #0
attr resultdir results
attr runnumber 0
attr seedset 0

vector 1  WhiteRabbitSwitch6.wrQueue0  queueLength:vector  ETV
attr interpolationmode  sample-hold
attr title  "queue length, vector"
vector 9  WhiteRabbitSwitch6.wrQueue1  queueLength:vector  ETV
attr interpolationmode  sample-hold
attr title  "queue length, vector"
vector 10  WhiteRabbitSwitch6.wrQueue2  queueLength:vector  ETV
attr interpolationmode  sample-hold
attr title  "queue length, vector"
vector 11  WhiteRabbitSwitch6.wrQueue3  queueLength:vector  ETV
attr interpolationmode  sample-hold
attr title  "queue length, vector"
vector 12  WhiteRabbitSwitch6.wrQueue4  queueLength:vector  ETV
attr interpolationmode  sample-hold
attr title  "queue length, vector"
vector 13  WhiteRabbitSwitch6.wrQueue5  queueLength:vector  ETV
attr interpolationmode  sample-hold
attr title  "queue length, vector"
vector 14  WhiteRabbitSwitch6.wrQueue6  queueLength:vector  ETV
attr interpolationmode  sample-hold
attr title  "queue length, vector"
vector 15  WhiteRabbitSwitch6.wrQueue7  queueLength:vector  ETV
attr interpolationmode  sample-hold
attr title  "queue length, vector"
vector 8  WhiteRabbitSwitch6.out7  lifeTime:vector  ETV
attr interpolationmode  none
attr title  "lifetime of arrived jobs, vector"
attr unit  s
1	0	0	0
1	13	3.388869786098	1
1	26	5.342882638884	1
1	35	11.97270719874	2
1	46	12.609419480423	3
1	57	13.576623690319	4
1	70	14.87551638682	5
1	83	18.013308622066	6
1	96	21.357731022715	1
1	105	22.86307924934	2
1	118	29.163419106691	3
1	131	29.777979810996	4
1	144	30.280863675145	5
8	11	1.591749009131	0
8	23	3.388869786098	0
8	24	3.388869786098	0
8	44	11.97270719874	0
8	55	12.609419480423	0
8	67	13.576623690319	0
8	68	13.576623690319	0
8	80	14.87551638682	0
8	81	14.87551638682	0
8	93	18.013308622066	0
8	94	18.013308622066	0
8	115	22.86307924934	0
8	116	22.86307924934	0
8	128	29.163419106691	0
8	129	29.163419106691	0
8	141	29.777979810996	0
8	142	29.777979810996	0
8	155	30.280863675145	0
8	156	30.280863675145	0
8	157	30.280863675145	0
9	0	0	0
9	14	3.388869786098	1
9	27	5.342882638884	1
9	36	11.97270719874	2
9	47	12.609419480423	3
9	58	13.576623690319	4
9	84	18.013308622066	5
9	97	21.357731022715	6
9	119	29.163419106691	1
9	132	29.777979810996	2
9	145	30.280863675145	3
10	0	0	0
10	15	3.388869786098	1
10	28	5.342882638884	1
10	37	11.97270719874	2
10	48	12.609419480423	3
10	59	13.576623690319	4
10	72	14.87551638682	5
10	85	18.013308622066	6
10	98	21.357731022715	1
10	120	29.163419106691	2
10	146	30.280863675145	3
11	0	0	0
11	16	3.388869786098	1
11	29	5.342882638884	1
11	38	11.97270719874	2
11	49	12.609419480423	3
11	73	14.87551638682	4
11	86	18.013308622066	5
11	99	21.357731022715	6
11	108	22.86307924934	1
11	134	29.777979810996	2
12	0	0	0
12	30	5.342882638884	1
12	50	12.609419480423	2
12	61	13.576623690319	3
12	74	14.87551638682	4
12	87	18.013308622066	5
12	100	21.357731022715	6
12	109	22.86307924934	1
12	122	29.163419106691	2
12	135	29.777979810996	3
12	148	30.280863675145	4
13	0	0	0
13	18	3.388869786098	1
13	31	5.342882638884	1
13	40	11.97270719874	2
13	62	13.576623690319	3
13	75	14.87551638682	4
13	101	21.357731022715	5
13	110	22.86307924934	6
13	123	29.163419106691	1
13	136	29.777979810996	2
13	149	30.280863675145	3
14	0	0	0
14	32	5.342882638884	1
14	41	11.97270719874	2
14	52	12.609419480423	3
14	63	13.576623690319	4
14	102	21.357731022715	5
14	111	22.86307924934	6
14	124	29.163419106691	1
14	137	29.777979810996	2
15	0	0	0
15	33	5.342882638884	1
15	42	11.97270719874	2
15	53	12.609419480423	3
15	77	14.87551638682	4
15	90	18.013308622066	5
15	103	21.357731022715	6
15	112	22.86307924934	1
