version 2
run WhiteRabbitSwitch6-0-20120123-16:14:01-9992
attr configname WhiteRabbitSwitch6
attr datetime 20120123-16:14:01
attr experiment WhiteRabbitSwitch6
attr inifile omnetpp.ini
attr iterationvars ""
attr iterationvars2 $repetition=0
attr measurement ""
attr network WhiteRabbitSwitch6
attr processid 9992
attr repetition 0
attr replication #0
attr resultdir results
attr runnumber 0
attr seedset 0

vector 1  WhiteRabbitSwitch6.wrQueue0  queueLength:vector  ETV
attr interpolationmode  sample-hold
attr title  "queue length, vector"
vector 9  WhiteRabbitSwitch6.wrQueue1  queueLength:vector  ETV
attr interpolationmode  sample-hold
attr title  "queue length, vector"
vector 10  WhiteRabbitSwitch6.wrQueue2  queueLength:vector  ETV
attr interpolationmode  sample-hold
attr title  "queue length, vector"
vector 11  WhiteRabbitSwitch6.wrQueue3  queueLength:vector  ETV
attr interpolationmode  sample-hold
attr title  "queue length, vector"
vector 12  WhiteRabbitSwitch6.wrQueue4  queueLength:vector  ETV
attr interpolationmode  sample-hold
attr title  "queue length, vector"
vector 13  WhiteRabbitSwitch6.wrQueue5  queueLength:vector  ETV
attr interpolationmode  sample-hold
attr title  "queue length, vector"
vector 14  WhiteRabbitSwitch6.wrQueue6  queueLength:vector  ETV
attr interpolationmode  sample-hold
attr title  "queue length, vector"
vector 15  WhiteRabbitSwitch6.wrQueue7  queueLength:vector  ETV
attr interpolationmode  sample-hold
attr title  "queue length, vector"
vector 8  WhiteRabbitSwitch6.out7  lifeTime:vector  ETV
attr interpolationmode  none
attr title  "lifetime of arrived jobs, vector"
attr unit  s
1	0	0	0
1	12	1.591749009131	1
1	22	1.591749009131	1
1	34	1.591749009131	1
1	45	1.591749009131	2
1	55	1.591749009131	1
1	66	1.591749009131	1
1	78	1.591749009131	1
1	91	1.591749009131	1
1	104	1.591749009131	1
1	115	1.591749009131	2
1	126	1.591749009131	1
1	139	1.591749009131	1
8	32	1.591749009131	0
8	42	1.591749009131	0
8	43	1.591749009131	0
8	64	1.591749009131	0
8	76	1.591749009131	0
8	88	1.591749009131	0
8	89	1.591749009131	0
8	101	1.591749009131	0
8	102	1.591749009131	0
8	112	1.591749009131	0
8	113	1.591749009131	0
8	136	1.591749009131	0
8	137	1.591749009131	0
8	149	1.591749009131	0
8	150	1.591749009131	0
8	154	1.591749009131	0
8	155	1.591749009131	0
8	156	1.591749009131	0
8	157	1.591749009131	0
8	158	1.591749009131	0
9	0	0	0
9	13	1.591749009131	1
9	23	1.591749009131	1
9	35	1.591749009131	1
9	46	1.591749009131	2
9	56	1.591749009131	1
9	79	1.591749009131	1
9	92	1.591749009131	1
9	116	1.591749009131	1
9	127	1.591749009131	1
9	140	1.591749009131	1
10	0	0	0
10	14	1.591749009131	1
10	24	1.591749009131	1
10	36	1.591749009131	1
10	47	1.591749009131	2
10	57	1.591749009131	1
10	68	1.591749009131	1
10	80	1.591749009131	1
10	93	1.591749009131	1
10	117	1.591749009131	1
10	141	1.591749009131	1
11	0	0	0
11	15	1.591749009131	1
11	25	1.591749009131	1
11	37	1.591749009131	1
11	48	1.591749009131	2
11	69	1.591749009131	1
11	81	1.591749009131	1
11	94	1.591749009131	1
11	107	1.591749009131	1
11	129	1.591749009131	1
12	0	0	0
12	26	1.591749009131	1
12	49	1.591749009131	1
12	59	1.591749009131	1
12	70	1.591749009131	1
12	82	1.591749009131	1
12	95	1.591749009131	1
12	108	1.591749009131	1
12	119	1.591749009131	2
12	130	1.591749009131	1
12	143	1.591749009131	1
13	0	0	0
13	17	1.591749009131	1
13	27	1.591749009131	1
13	39	1.591749009131	1
13	60	1.591749009131	1
13	71	1.591749009131	1
13	96	1.591749009131	1
13	109	1.591749009131	1
13	120	1.591749009131	2
13	131	1.591749009131	1
13	144	1.591749009131	1
14	0	0	0
14	28	1.591749009131	1
14	40	1.591749009131	1
14	51	1.591749009131	2
14	61	1.591749009131	1
14	97	1.591749009131	1
14	110	1.591749009131	1
14	121	1.591749009131	2
14	132	1.591749009131	1
15	0	0	0
15	29	1.591749009131	1
15	41	1.591749009131	1
15	52	1.591749009131	2
15	73	1.591749009131	1
15	85	1.591749009131	1
15	98	1.591749009131	1
15	111	1.591749009131	1
