version 2
run WRS-0-20120222-16:15:54-9267
attr configname WRS
attr datetime 20120222-16:15:54
attr experiment WRS
attr inifile omnetpp.ini
attr iterationvars ""
attr iterationvars2 $repetition=0
attr measurement ""
attr network WRS
attr processid 9267
attr repetition 0
attr replication #0
attr resultdir results
attr runnumber 0
attr seedset 0

vector 0  WRS.passiveQueue0  queueLength:vector  ETV
attr interpolationmode  sample-hold
attr title  "queue length, vector"
vector 1  WRS.passiveQueue1  queueLength:vector  ETV
attr interpolationmode  sample-hold
attr title  "queue length, vector"
vector 2  WRS.passiveQueue2  queueLength:vector  ETV
attr interpolationmode  sample-hold
attr title  "queue length, vector"
vector 3  WRS.passiveQueue3  queueLength:vector  ETV
attr interpolationmode  sample-hold
attr title  "queue length, vector"
vector 5  WRS.passiveQueue4  queueLength:vector  ETV
attr interpolationmode  sample-hold
attr title  "queue length, vector"
vector 6  WRS.passiveQueue5  queueLength:vector  ETV
attr interpolationmode  sample-hold
attr title  "queue length, vector"
vector 7  WRS.passiveQueue6  queueLength:vector  ETV
attr interpolationmode  sample-hold
attr title  "queue length, vector"
vector 8  WRS.passiveQueue7  queueLength:vector  ETV
attr interpolationmode  sample-hold
attr title  "queue length, vector"
vector 4  WRS.sink  lifeTime:vector  ETV
attr interpolationmode  none
attr title  "lifetime of arrived jobs, vector"
attr unit  s
0	0	0	0
0	72	0.000021	1
0	93	0.000028	2
0	164	0.000049	3
0	177	0.000052	4
0	192	0.000057	5
0	195	0.000058	6
0	201	0.00006	7
0	245	0.000072	8
0	412	0.000121	9
0	480	0.000141	10
0	486	0.000143	11
0	520	0.000153	12
0	529	0.000156	13
0	532	0.000157	14
0	554	0.000163	15
0	575	0.00017	16
0	585	0.000172	17
0	588	0.000173	18
0	631	0.000186	19
0	662	0.000195	20
0	711	0.00021	21
0	742	0.000219	22
0	773	0.000228	23
0	801	0.000236	24
0	841	0.000248	25
0	903	0.000266	26
0	915	0.00027	27
0	922	0.000271	28
0	959	0.000282	29
0	990	0.000291	30
0	1107	0.000326	31
0	1163	0.000342	32
0	1166	0.000343	33
0	1181	0.000348	34
0	1271	0.000374	35
0	1283	0.000378	36
0	1296	0.000381	37
0	1317	0.000388	38
0	1320	0.000389	39
0	1342	0.000395	40
0	1345	0.000396	41
0	1364	0.000401	42
0	1416	0.000417	43
0	1419	0.000418	44
0	1459	0.00043	45
0	1490	0.000439	46
0	1537	0.000452	47
0	1583	0.000466	48
0	1623	0.000478	49
0	1626	0.000479	50
0	1648	0.000485	51
0	1651	0.000486	52
0	1855	0.000546	53
0	1874	0.000551	54
0	1883	0.000554	55
0	1914	0.000563	56
0	1942	0.000571	57
0	1945	0.000572	58
0	2093	0.000616	59
0	2118	0.000623	60
0	2130	0.000627	61
0	2136	0.000629	62
0	2207	0.00065	63
0	2257	0.000664	64
0	2263	0.000666	65
0	2275	0.00067	66
0	2285	0.000672	67
0	2316	0.000681	68
0	2334	0.000687	69
0	2365	0.000696	70
0	2405	0.000708	71
0	2408	0.000709	72
0	2427	0.000714	73
0	2436	0.000717	74
0	2495	0.000734	75
0	2554	0.000751	76
0	2588	0.000761	77
0	2622	0.000771	78
0	2625	0.000772	79
0	2628	0.000773	80
0	2649	0.00078	81
0	2665	0.000784	82
0	2668	0.000785	83
0	2680	0.000789	84
0	2705	0.000796	85
0	2724	0.000801	86
0	2733	0.000804	87
0	2745	0.000808	88
0	2767	0.000814	89
0	2804	0.000825	90
0	2816	0.000829	91
0	2847	0.000838	92
0	2850	0.000839	93
0	2878	0.000847	94
0	2894	0.000851	95
0	2912	0.000857	96
0	2915	0.000858	97
0	2931	0.000862	98
0	2977	0.000876	99
0	3023	0.00089	100
0	3067	0.000902	101
0	3073	0.000904	102
0	3147	0.000926	103
0	3169	0.000932	104
0	3193	0.00094	105
0	3209	0.000944	106
0	3237	0.000952	107
0	3308	0.000973	108
0	3329	0.00098	109
0	3342	0.000983	110
0	3419	0.001006	111
0	3459	0.001018	112
0	3462	0.001019	113
0	3515	0.001034	114
0	3524	0.001037	115
0	3561	0.001048	116
0	3564	0.001049	117
0	3567	0.00105	118
0	3580	0.001053	119
0	3598	0.001059	120
0	3632	0.001069	121
0	3657	0.001076	122
0	3679	0.001082	123
0	3691	0.001086	124
0	3713	0.001092	125
0	3750	0.001103	126
0	3762	0.001107	127
0	3787	0.001114	128
0	3796	0.001117	129
0	3839	0.00113	130
0	3914	0.001151	131
0	3969	0.001168	132
0	3994	0.001175	133
0	4040	0.001189	134
0	4133	0.001216	135
0	4145	0.00122	136
0	4179	0.00123	137
0	4226	0.001243	138
0	4229	0.001244	139
0	4269	0.001256	140
0	4315	0.00127	141
0	4322	0.001271	142
0	4331	0.001274	143
0	4337	0.001276	144
0	4368	0.001285	145
0	4399	0.001294	146
0	4405	0.001296	147
0	4408	0.001297	148
0	4458	0.001311	149
0	4504	0.001325	150
0	4513	0.001328	151
0	4516	0.001329	152
0	4526	0.001331	153
0	4532	0.001333	154
0	4587	0.00135	155
0	4600	0.001353	156
0	4603	0.001354	157
0	4609	0.001356	158
0	4621	0.00136	159
0	4655	0.00137	160
0	4674	0.001375	161
0	4720	0.001389	162
0	4736	0.001393	163
0	4748	0.001397	164
0	4751	0.001398	165
0	4764	0.001401	166
0	4776	0.001405	167
0	4813	0.001416	168
0	4838	0.001423	169
0	4924	0.001449	170
0	4927	0.00145	171
0	4968	0.001461	172
0	4971	0.001462	173
0	4974	0.001463	174
0	4980	0.001465	175
0	4983	0.001466	176
0	5017	0.001476	177
0	5026	0.001479	178
0	5054	0.001487	179
0	5091	0.001498	180
0	5097	0.0015	181
0	5178	0.001523	182
0	5249	0.001544	183
0	5255	0.001546	184
0	5298	0.001559	185
0	5317	0.001564	186
0	5345	0.001572	187
0	5354	0.001575	188
0	5382	0.001583	189
0	5388	0.001585	190
0	5391	0.001586	191
0	5397	0.001588	192
0	5413	0.001592	193
0	5422	0.001595	194
0	5453	0.001604	195
0	5505	0.00162	196
0	5515	0.001622	197
0	5518	0.001623	198
0	5573	0.00164	199
0	5617	0.001652	200
0	5663	0.001666	201
0	5666	0.001667	202
0	5700	0.001677	203
0	5740	0.001689	204
0	5756	0.001693	205
0	5784	0.001701	206
0	5802	0.001707	207
0	5852	0.001721	208
0	5855	0.001722	209
0	5867	0.001726	210
0	5898	0.001735	211
0	5904	0.001737	212
0	5907	0.001738	213
0	5932	0.001745	214
0	5966	0.001755	215
0	6022	0.001771	216
0	6034	0.001775	217
0	6049	0.00178	218
0	6062	0.001783	219
0	6074	0.001787	220
0	6136	0.001805	221
0	6216	0.001829	222
0	6238	0.001835	223
0	6241	0.001836	224
0	6266	0.001843	225
0	6269	0.001844	226
0	6328	0.001861	227
0	6346	0.001867	228
0	6349	0.001868	229
0	6368	0.001873	230
0	6383	0.001878	231
0	6386	0.001879	232
0	6408	0.001885	233
0	6430	0.001891	234
0	6464	0.001901	235
0	6501	0.001912	236
0	6504	0.001913	237
0	6525	0.00192	238
0	6575	0.001934	239
0	6587	0.001938	240
0	6603	0.001942	241
0	6643	0.001954	242
0	6661	0.00196	243
0	6671	0.001962	244
0	6680	0.001965	245
0	6683	0.001966	246
0	6763	0.00199	247
0	6804	0.002001	248
0	6813	0.002004	249
0	6825	0.002008	250
0	6828	0.002009	251
0	6844	0.002013	252
0	6875	0.002022	253
0	6878	0.002023	254
0	6890	0.002027	255
0	6893	0.002028	256
0	6921	0.002036	257
0	6933	0.00204	258
0	6967	0.00205	259
0	6992	0.002057	260
0	7017	0.002064	261
0	7045	0.002072	262
0	7048	0.002073	263
0	7069	0.00208	264
0	7147	0.002102	265
0	7190	0.002115	266
0	7212	0.002121	267
0	7215	0.002122	268
0	7218	0.002123	269
0	7255	0.002134	270
0	7273	0.00214	271
0	7307	0.00215	272
0	7409	0.00218	273
0	7428	0.002185	274
0	7431	0.002186	275
0	7545	0.00222	276
0	7561	0.002224	277
0	7579	0.00223	278
0	7598	0.002235	279
0	7638	0.002247	280
0	7657	0.002252	281
0	7666	0.002255	282
0	7681	0.00226	283
0	7734	0.002275	284
0	7811	0.002298	285
0	7870	0.002315	286
0	7910	0.002327	287
0	7929	0.002332	288
0	7947	0.002338	289
0	7966	0.002343	290
0	7984	0.002349	291
0	8055	0.00237	292
0	8062	0.002371	293
0	8065	0.002372	294
0	8232	0.002421	295
0	8250	0.002427	296
0	8272	0.002433	297
0	8306	0.002443	298
0	8374	0.002463	299
0	8377	0.002464	300
0	8436	0.002481	301
0	8454	0.002487	302
0	8457	0.002488	303
0	8460	0.002489	304
0	8473	0.002492	305
0	8482	0.002495	306
0	8494	0.002499	307
0	8513	0.002504	308
0	8547	0.002514	309
0	8559	0.002518	310
0	8590	0.002527	311
0	8627	0.002538	312
0	8683	0.002554	313
0	8686	0.002555	314
0	8695	0.002558	315
0	8720	0.002565	316
0	8782	0.002583	317
0	8788	0.002585	318
0	8797	0.002588	319
0	8816	0.002593	320
0	8887	0.002614	321
0	8918	0.002623	322
0	8936	0.002629	323
0	8980	0.002641	324
0	8995	0.002646	325
0	9014	0.002651	326
0	9017	0.002652	327
0	9023	0.002654	328
0	9072	0.002669	329
0	9085	0.002672	330
0	9116	0.002681	331
0	9131	0.002686	332
0	9143	0.00269	333
0	9162	0.002695	334
0	9177	0.0027	335
0	9193	0.002704	336
0	9205	0.002708	337
0	9211	0.00271	338
0	9236	0.002717	339
0	9264	0.002725	340
0	9273	0.002728	341
0	9307	0.002738	342
0	9329	0.002744	343
0	9335	0.002746	344
0	9394	0.002763	345
0	9409	0.002768	346
0	9425	0.002772	347
0	9443	0.002778	348
0	9496	0.002793	349
0	9564	0.002813	350
0	9570	0.002815	351
0	9576	0.002817	352
0	9601	0.002824	353
0	9610	0.002827	354
0	9619	0.00283	355
0	9635	0.002834	356
0	9653	0.00284	357
0	9663	0.002842	358
0	9672	0.002845	359
0	9681	0.002848	360
0	9731	0.002862	361
0	9737	0.002864	362
0	9743	0.002866	363
0	9833	0.002892	364
0	9864	0.002901	365
0	9867	0.002902	366
0	9882	0.002907	367
0	9888	0.002909	368
0	9919	0.002918	369
0	9950	0.002927	370
0	10021	0.002948	371
0	10024	0.002949	372
0	10055	0.002958	373
0	10080	0.002965	374
0	10092	0.002969	375
0	10105	0.002972	376
0	10204	0.003001	377
0	10207	0.003002	378
0	10213	0.003004	379
0	10250	0.003015	380
0	10281	0.003024	381
0	10293	0.003028	382
0	10330	0.003039	383
0	10340	0.003041	384
0	10389	0.003056	385
0	10398	0.003059	386
0	10401	0.00306	387
0	10426	0.003067	388
0	10435	0.00307	389
0	10491	0.003086	390
0	10497	0.003088	391
0	10510	0.003091	392
0	10522	0.003095	393
0	10531	0.003098	394
0	10581	0.003112	395
0	10584	0.003113	396
0	10649	0.003132	397
0	10683	0.003142	398
0	10704	0.003149	399
0	10707	0.00315	400
0	10732	0.003157	401
0	10782	0.003171	402
0	10800	0.003177	403
0	10809	0.00318	404
0	10877	0.0032	405
0	10902	0.003207	406
0	10958	0.003223	407
0	10970	0.003227	408
0	10995	0.003234	409
0	10998	0.003235	410
0	11001	0.003236	411
0	11007	0.003238	412
0	11013	0.00324	413
0	11054	0.003251	414
0	11063	0.003254	415
0	11066	0.003255	416
0	11072	0.003257	417
0	11075	0.003258	418
0	11115	0.00327	419
0	11177	0.003288	420
0	11190	0.003291	421
0	11208	0.003297	422
0	11227	0.003302	423
0	11264	0.003313	424
0	11267	0.003314	425
0	11282	0.003319	426
0	11285	0.00332	427
0	11292	0.003321	428
0	11295	0.003322	429
0	11344	0.003337	430
0	11384	0.003349	431
0	11397	0.003352	432
0	11403	0.003354	433
0	11406	0.003355	434
0	11409	0.003356	435
0	11486	0.003379	436
0	11613	0.003416	437
0	11650	0.003427	438
0	11659	0.00343	439
0	11703	0.003442	440
0	11709	0.003444	441
0	11712	0.003445	442
0	11718	0.003447	443
0	11758	0.003459	444
0	11817	0.003476	445
0	11845	0.003484	446
0	11857	0.003488	447
0	11975	0.003522	448
0	11978	0.003523	449
0	12024	0.003537	450
0	12030	0.003539	451
0	12043	0.003542	452
0	12055	0.003546	453
0	12077	0.003552	454
0	12092	0.003557	455
0	12095	0.003558	456
0	12101	0.00356	457
0	12114	0.003563	458
0	12145	0.003572	459
0	12179	0.003582	460
0	12253	0.003604	461
0	12259	0.003606	462
0	12265	0.003608	463
0	12268	0.003609	464
0	12287	0.003614	465
0	12293	0.003616	466
0	12339	0.00363	467
0	12367	0.003638	468
0	12432	0.003657	469
0	12485	0.003672	470
0	12491	0.003674	471
0	12534	0.003687	472
0	12540	0.003689	473
0	12556	0.003693	474
0	12587	0.003702	475
0	12605	0.003708	476
0	12655	0.003722	477
0	12676	0.003729	478
0	12679	0.00373	479
0	12692	0.003733	480
0	12707	0.003738	481
0	12735	0.003746	482
0	12754	0.003751	483
0	12760	0.003753	484
0	12800	0.003765	485
0	12837	0.003776	486
0	12849	0.00378	487
0	12856	0.003781	488
0	12862	0.003783	489
0	12868	0.003785	490
0	12883	0.00379	491
0	12893	0.003792	492
0	12902	0.003795	493
0	12961	0.003812	494
0	12964	0.003813	495
0	12973	0.003816	496
0	12976	0.003817	497
0	13041	0.003836	498
0	13047	0.003838	499
0	13301	0.003912	500
0	13322	0.003919	501
0	13332	0.003921	502
0	13359	0.00393	503
0	13381	0.003936	504
0	13409	0.003944	505
0	13415	0.003946	506
0	13446	0.003955	507
0	13520	0.003977	508
0	13610	0.004003	509
0	13641	0.004012	510
0	13647	0.004014	511
0	13678	0.004023	512
0	13724	0.004037	513
0	13733	0.00404	514
0	13755	0.004046	515
0	13789	0.004056	516
0	13792	0.004057	517
0	13817	0.004064	518
0	13885	0.004084	519
0	13894	0.004087	520
0	13913	0.004092	521
0	13922	0.004095	522
0	13934	0.004099	523
0	13944	0.004101	524
0	13987	0.004114	525
0	14055	0.004134	526
0	14061	0.004136	527
0	14070	0.004139	528
0	14080	0.004141	529
0	14114	0.004151	530
0	14138	0.004159	531
0	14209	0.00418	532
0	14308	0.004209	533
0	14321	0.004212	534
0	14407	0.004238	535
0	14435	0.004246	536
0	14454	0.004251	537
0	14469	0.004256	538
0	14549	0.00428	539
0	14568	0.004285	540
0	14571	0.004286	541
0	14580	0.004289	542
0	14614	0.004299	543
0	14713	0.004328	544
0	14732	0.004333	545
0	14744	0.004337	546
0	14800	0.004353	547
0	14809	0.004356	548
0	14818	0.004359	549
0	14821	0.00436	550
0	14831	0.004362	551
0	14846	0.004367	552
0	14855	0.00437	553
0	14886	0.004379	554
0	14976	0.004405	555
0	14991	0.00441	556
0	15019	0.004418	557
0	15106	0.004443	558
0	15118	0.004447	559
0	15146	0.004455	560
0	15177	0.004464	561
0	15183	0.004466	562
0	15195	0.00447	563
0	15254	0.004487	564
0	15288	0.004497	565
0	15291	0.004498	566
0	15316	0.004505	567
0	15365	0.00452	568
0	15372	0.004521	569
0	15399	0.00453	570
0	15424	0.004537	571
0	15449	0.004544	572
0	15452	0.004545	573
0	15480	0.004553	574
0	15486	0.004555	575
0	15520	0.004565	576
0	15529	0.004568	577
0	15542	0.004571	578
0	15557	0.004576	579
0	15696	0.004617	580
0	15712	0.004621	581
0	15770	0.004639	582
0	15780	0.004641	583
0	15832	0.004657	584
0	15854	0.004663	585
0	15863	0.004666	586
0	15916	0.004681	587
0	15956	0.004693	588
0	15996	0.004705	589
0	16008	0.004709	590
0	16018	0.004711	591
0	16021	0.004712	592
0	16045	0.00472	593
0	16126	0.004743	594
0	16138	0.004747	595
0	16147	0.00475	596
0	16188	0.004761	597
0	16209	0.004768	598
0	16231	0.004774	599
0	16237	0.004776	600
0	16265	0.004784	601
0	16308	0.004797	602
0	16330	0.004803	603
0	16358	0.004811	604
0	16364	0.004813	605
0	16373	0.004816	606
0	16385	0.00482	607
0	16401	0.004824	608
0	16404	0.004825	609
0	16438	0.004835	610
0	16478	0.004847	611
0	16531	0.004862	612
0	16562	0.004871	613
0	16565	0.004872	614
0	16574	0.004875	615
0	16577	0.004876	616
0	16583	0.004878	617
0	16589	0.00488	618
0	16611	0.004886	619
0	16630	0.004891	620
0	16636	0.004893	621
0	16679	0.004906	622
0	16688	0.004909	623
0	16701	0.004912	624
0	16713	0.004916	625
0	16759	0.00493	626
0	16846	0.004955	627
0	16908	0.004973	628
0	16948	0.004985	629
0	16976	0.004993	630
0	16994	0.004999	631
0	17007	0.005002	632
0	17019	0.005006	633
0	17047	0.005014	634
0	17130	0.005039	635
0	17143	0.005042	636
0	17152	0.005045	637
0	17177	0.005052	638
0	17189	0.005056	639
0	17294	0.005087	640
0	17325	0.005096	641
0	17353	0.005104	642
0	17452	0.005133	643
0	17480	0.005141	644
0	17514	0.005151	645
0	17535	0.005158	646
0	17591	0.005174	647
0	17603	0.005178	648
0	17619	0.005182	649
0	17684	0.005201	650
0	17693	0.005204	651
0	17708	0.005209	652
0	17718	0.005211	653
0	17764	0.005225	654
0	17854	0.005251	655
0	17866	0.005255	656
0	17872	0.005257	657
0	17909	0.005268	658
0	17915	0.00527	659
0	17971	0.005286	660
0	18008	0.005297	661
0	18014	0.005299	662
0	18027	0.005302	663
0	18058	0.005311	664
0	18067	0.005314	665
0	18076	0.005317	666
0	18126	0.005331	667
0	18160	0.005341	668
0	18206	0.005355	669
0	18218	0.005359	670
0	18268	0.005373	671
0	18271	0.005374	672
0	18277	0.005376	673
0	18305	0.005384	674
0	18308	0.005385	675
0	18364	0.005401	676
0	18388	0.005409	677
0	18444	0.005425	678
0	18466	0.005431	679
0	18487	0.005438	680
0	18512	0.005445	681
0	18521	0.005448	682
0	18524	0.005449	683
0	18543	0.005454	684
0	18558	0.005459	685
0	18568	0.005461	686
0	18583	0.005466	687
0	18592	0.005469	688
0	18602	0.005471	689
0	18620	0.005477	690
0	18623	0.005478	691
0	18688	0.005497	692
0	18738	0.005511	693
0	18744	0.005513	694
0	18756	0.005517	695
0	18821	0.005536	696
0	18867	0.00555	697
0	18883	0.005554	698
0	18942	0.005571	699
0	18991	0.005586	700
0	19025	0.005596	701
0	19028	0.005597	702
0	19056	0.005605	703
0	19087	0.005614	704
0	19096	0.005617	705
0	19127	0.005626	706
0	19139	0.00563	707
0	19149	0.005632	708
0	19183	0.005642	709
0	19195	0.005646	710
0	19207	0.00565	711
0	19217	0.005652	712
0	19220	0.005653	713
0	19238	0.005659	714
0	19263	0.005666	715
0	19269	0.005668	716
0	19297	0.005676	717
0	19322	0.005683	718
0	19340	0.005689	719
0	19343	0.00569	720
0	19424	0.005713	721
0	19461	0.005724	722
0	19464	0.005725	723
0	19529	0.005744	724
0	19532	0.005745	725
0	19581	0.00576	726
0	19588	0.005761	727
0	19622	0.005771	728
0	19640	0.005777	729
0	19677	0.005788	730
0	19680	0.005789	731
0	19693	0.005792	732
0	19724	0.005801	733
0	19730	0.005803	734
0	19739	0.005806	735
0	19776	0.005817	736
0	19779	0.005818	737
0	19785	0.00582	738
0	19819	0.00583	739
0	19853	0.00584	740
0	19928	0.005861	741
0	19989	0.00588	742
0	20008	0.005885	743
0	20054	0.005899	744
0	20076	0.005905	745
0	20079	0.005906	746
0	20193	0.00594	747
0	20200	0.005941	748
0	20203	0.005942	749
0	20255	0.005958	750
0	20261	0.00596	751
0	20317	0.005976	752
0	20323	0.005978	753
0	20326	0.005979	754
0	20329	0.00598	755
0	20373	0.005992	756
0	20376	0.005993	757
0	20422	0.006007	758
0	20425	0.006008	759
0	20431	0.00601	760
0	20459	0.006018	761
0	20490	0.006027	762
0	20499	0.00603	763
0	20506	0.006031	764
0	20524	0.006037	765
0	20555	0.006046	766
0	20558	0.006047	767
0	20586	0.006055	768
0	20592	0.006057	769
0	20601	0.00606	770
0	20623	0.006066	771
0	20645	0.006072	772
0	20657	0.006076	773
0	20725	0.006096	774
0	20747	0.006102	775
0	20762	0.006107	776
0	20771	0.00611	777
0	20824	0.006125	778
0	20873	0.00614	779
0	20907	0.00615	780
0	20969	0.006168	781
0	20982	0.006171	782
0	21006	0.006179	783
0	21040	0.006189	784
0	21084	0.006201	785
0	21093	0.006204	786
0	21121	0.006212	787
0	21232	0.006245	788
0	21235	0.006246	789
0	21272	0.006257	790
0	21275	0.006258	791
0	21297	0.006264	792
0	21349	0.00628	793
0	21365	0.006284	794
0	21383	0.00629	795
0	21414	0.006299	796
0	21439	0.006306	797
0	21464	0.006313	798
0	21467	0.006314	799
0	21495	0.006322	800
0	21513	0.006328	801
0	21519	0.00633	802
0	21535	0.006334	803
0	21538	0.006335	804
0	21547	0.006338	805
0	21563	0.006342	806
0	21578	0.006347	807
0	21615	0.006358	808
0	21628	0.006361	809
0	21634	0.006363	810
0	21640	0.006365	811
0	21662	0.006371	812
0	21689	0.00638	813
0	21714	0.006387	814
0	21754	0.006399	815
0	21785	0.006408	816
0	21798	0.006411	817
0	21819	0.006418	818
0	21856	0.006429	819
0	21866	0.006431	820
0	21878	0.006435	821
0	21937	0.006452	822
0	21955	0.006458	823
0	22045	0.006484	824
0	22054	0.006487	825
0	22107	0.006502	826
0	22119	0.006506	827
0	22144	0.006513	828
0	22224	0.006537	829
0	22255	0.006546	830
0	22277	0.006552	831
0	22314	0.006563	832
0	22348	0.006573	833
0	22354	0.006575	834
0	22391	0.006586	835
0	22413	0.006592	836
0	22481	0.006612	837
0	22487	0.006614	838
0	22496	0.006617	839
0	22515	0.006622	840
0	22558	0.006635	841
0	22583	0.006642	842
0	22595	0.006646	843
0	22660	0.006665	844
0	22734	0.006687	845
0	22737	0.006688	846
0	22743	0.00669	847
0	22827	0.006714	848
0	22830	0.006715	849
0	22845	0.00672	850
0	22870	0.006727	851
0	22889	0.006732	852
0	22907	0.006738	853
0	22910	0.006739	854
0	22947	0.00675	855
0	22969	0.006756	856
0	22972	0.006757	857
0	23000	0.006765	858
0	23040	0.006777	859
0	23068	0.006785	860
0	23080	0.006789	861
0	23117	0.0068	862
0	23204	0.006825	863
0	23210	0.006827	864
0	23260	0.006841	865
0	23272	0.006845	866
0	23284	0.006849	867
0	23312	0.006857	868
0	23343	0.006866	869
0	23349	0.006868	870
0	23414	0.006887	871
0	23448	0.006897	872
0	23504	0.006913	873
0	23525	0.00692	874
0	23624	0.006949	875
0	23674	0.006963	876
0	23680	0.006965	877
0	23692	0.006969	878
0	23717	0.006976	879
0	23782	0.006995	880
0	23804	0.007001	881
0	23831	0.00701	882
0	23844	0.007013	883
0	23909	0.007032	884
0	23927	0.007038	885
0	23952	0.007045	886
0	23989	0.007056	887
0	24017	0.007064	888
0	24045	0.007072	889
0	24079	0.007082	890
0	24110	0.007091	891
0	24116	0.007093	892
0	24171	0.00711	893
0	24184	0.007113	894
0	24199	0.007118	895
0	24233	0.007128	896
0	24249	0.007132	897
0	24264	0.007137	898
0	24341	0.00716	899
0	24354	0.007163	900
0	24360	0.007165	901
0	24369	0.007168	902
0	24385	0.007172	903
0	24394	0.007175	904
0	24443	0.00719	905
0	24484	0.007201	906
0	24490	0.007203	907
0	24499	0.007206	908
0	24555	0.007222	909
0	24654	0.007251	910
0	24666	0.007255	911
0	24808	0.007297	912
0	24824	0.007301	913
0	24833	0.007304	914
0	24845	0.007308	915
0	24848	0.007309	916
0	24858	0.007311	917
0	24873	0.007316	918
0	24966	0.007343	919
0	24969	0.007344	920
0	24984	0.007349	921
0	25068	0.007373	922
0	25074	0.007375	923
0	25077	0.007376	924
0	25117	0.007388	925
0	25139	0.007394	926
0	25142	0.007395	927
0	25198	0.007411	928
0	25213	0.007416	929
0	25216	0.007417	930
0	25219	0.007418	931
0	25232	0.007421	932
0	25284	0.007437	933
0	25293	0.00744	934
0	25361	0.00746	935
0	25380	0.007465	936
0	25423	0.007478	937
0	25429	0.00748	938
0	25460	0.007489	939
0	25463	0.00749	940
0	25485	0.007496	941
0	25519	0.007506	942
0	25528	0.007509	943
0	25584	0.007525	944
0	25606	0.007531	945
0	25612	0.007533	946
0	25640	0.007541	947
0	25655	0.007546	948
0	25708	0.007561	949
0	25717	0.007564	950
0	25742	0.007571	951
0	25819	0.007594	952
0	25834	0.007599	953
0	25847	0.007602	954
0	25868	0.007609	955
0	25899	0.007618	956
0	25918	0.007623	957
0	25983	0.007642	958
0	26035	0.007658	959
0	26041	0.00766	960
0	26072	0.007669	961
0	26075	0.00767	962
0	26088	0.007673	963
0	26094	0.007675	964
0	26122	0.007683	965
0	26193	0.007704	966
0	26196	0.007705	967
0	26218	0.007711	968
0	26252	0.007721	969
0	26258	0.007723	970
0	26261	0.007724	971
0	26273	0.007728	972
0	26279	0.00773	973
0	26301	0.007736	974
0	26332	0.007745	975
0	26434	0.007775	976
0	26456	0.007781	977
0	26564	0.007813	978
0	26567	0.007814	979
0	26595	0.007822	980
0	26613	0.007828	981
0	26619	0.00783	982
0	26641	0.007836	983
0	26647	0.007838	984
0	26650	0.007839	985
0	26678	0.007847	986
0	26684	0.007849	987
0	26712	0.007857	988
0	26715	0.007858	989
0	26728	0.007861	990
0	26789	0.00788	991
0	26814	0.007887	992
0	26919	0.007918	993
0	26950	0.007927	994
0	27009	0.007944	995
0	27037	0.007952	996
0	27049	0.007956	997
0	27083	0.007966	998
0	27120	0.007977	999
0	27188	0.007997	1000
0	27207	0.008002	1001
0	27216	0.008005	1002
0	27225	0.008008	1003
0	27253	0.008016	1004
0	27281	0.008024	1005
0	27287	0.008026	1006
0	27299	0.00803	1007
0	27312	0.008033	1008
0	27321	0.008036	1009
0	27383	0.008054	1010
0	27386	0.008055	1011
0	27392	0.008057	1012
0	27435	0.00807	1013
0	27466	0.008079	1014
0	27500	0.008089	1015
0	27510	0.008091	1016
0	27519	0.008094	1017
0	27578	0.008111	1018
0	27627	0.008126	1019
0	27695	0.008146	1020
0	27723	0.008154	1021
0	27738	0.008159	1022
0	27748	0.008161	1023
0	27825	0.008184	1024
0	27843	0.00819	1025
0	27902	0.008207	1026
0	27979	0.00823	1027
0	27995	0.008234	1028
0	28047	0.00825	1029
0	28112	0.008269	1030
0	28134	0.008275	1031
0	28214	0.008299	1032
0	28224	0.008301	1033
0	28258	0.008311	1034
0	28279	0.008318	1035
0	28335	0.008334	1036
0	28353	0.00834	1037
0	28421	0.00836	1038
0	28437	0.008364	1039
0	28455	0.00837	1040
0	28496	0.008381	1041
0	28502	0.008383	1042
0	28520	0.008389	1043
0	28601	0.008412	1044
0	28625	0.00842	1045
0	28641	0.008424	1046
0	28666	0.008431	1047
0	28669	0.008432	1048
0	28678	0.008435	1049
0	28724	0.008449	1050
0	28768	0.008461	1051
0	28774	0.008463	1052
0	28783	0.008466	1053
0	28805	0.008472	1054
0	28808	0.008473	1055
0	28820	0.008477	1056
0	28823	0.008478	1057
0	28829	0.00848	1058
0	28944	0.008513	1059
0	28984	0.008525	1060
0	28990	0.008527	1061
0	28996	0.008529	1062
0	29006	0.008531	1063
0	29018	0.008535	1064
0	29055	0.008546	1065
0	29074	0.008551	1066
0	29123	0.008566	1067
0	29132	0.008569	1068
0	29151	0.008574	1069
0	29160	0.008577	1070
0	29176	0.008581	1071
0	29182	0.008583	1072
0	29197	0.008588	1073
0	29250	0.008603	1074
0	29284	0.008613	1075
0	29339	0.00863	1076
0	29364	0.008637	1077
0	29407	0.00865	1078
0	29438	0.008659	1079
0	29441	0.00866	1080
0	29457	0.008664	1081
0	29482	0.008671	1082
0	29494	0.008675	1083
0	29534	0.008687	1084
0	29543	0.00869	1085
0	29565	0.008696	1086
0	29618	0.008711	1087
0	29633	0.008716	1088
0	29664	0.008725	1089
0	29670	0.008727	1090
0	29806	0.008767	1091
0	29914	0.008799	1092
0	29924	0.008801	1093
0	29979	0.008818	1094
0	29982	0.008819	1095
0	29998	0.008823	1096
0	30001	0.008824	1097
0	30060	0.008841	1098
0	30075	0.008846	1099
0	30084	0.008849	1100
0	30128	0.008861	1101
0	30134	0.008863	1102
0	30143	0.008866	1103
0	30146	0.008867	1104
0	30171	0.008874	1105
0	30199	0.008882	1106
0	30211	0.008886	1107
0	30233	0.008892	1108
0	30236	0.008893	1109
0	30248	0.008897	1110
0	30273	0.008904	1111
0	30276	0.008905	1112
0	30282	0.008907	1113
0	30307	0.008914	1114
0	30325	0.00892	1115
0	30338	0.008923	1116
0	30415	0.008946	1117
0	30440	0.008953	1118
0	30446	0.008955	1119
0	30461	0.00896	1120
0	30486	0.008967	1121
0	30502	0.008971	1122
0	30529	0.00898	1123
0	30570	0.008991	1124
0	30582	0.008995	1125
0	30604	0.009001	1126
0	30628	0.009009	1127
0	30631	0.00901	1128
0	30678	0.009023	1129
0	30690	0.009027	1130
0	30764	0.009049	1131
0	30767	0.00905	1132
0	30777	0.009052	1133
0	30823	0.009066	1134
0	30835	0.00907	1135
0	30851	0.009074	1136
0	30885	0.009084	1137
0	30894	0.009087	1138
0	30897	0.009088	1139
0	30910	0.009091	1140
0	30913	0.009092	1141
0	30944	0.009101	1142
0	30947	0.009102	1143
0	30990	0.009115	1144
0	30999	0.009118	1145
0	31033	0.009128	1146
0	31055	0.009134	1147
0	31104	0.009149	1148
0	31154	0.009163	1149
0	31188	0.009173	1150
0	31206	0.009179	1151
0	31231	0.009186	1152
0	31256	0.009193	1153
0	31268	0.009197	1154
0	31302	0.009207	1155
0	31355	0.009222	1156
0	31358	0.009223	1157
0	31361	0.009224	1158
0	31392	0.009233	1159
0	31444	0.009249	1160
0	31460	0.009253	1161
0	31466	0.009255	1162
0	31515	0.00927	1163
0	31522	0.009271	1164
0	31546	0.009279	1165
0	31559	0.009282	1166
0	31602	0.009295	1167
0	31614	0.009299	1168
0	31639	0.009306	1169
0	31648	0.009309	1170
0	31676	0.009317	1171
0	31710	0.009327	1172
0	31787	0.00935	1173
0	31794	0.009351	1174
0	31821	0.00936	1175
0	31849	0.009368	1176
0	31852	0.009369	1177
0	31862	0.009371	1178
0	31868	0.009373	1179
0	31874	0.009375	1180
0	31920	0.009389	1181
0	31939	0.009394	1182
0	31942	0.009395	1183
0	31973	0.009404	1184
0	32013	0.009416	1185
0	32056	0.009429	1186
0	32059	0.00943	1187
0	32069	0.009432	1188
0	32078	0.009435	1189
0	32081	0.009436	1190
0	32121	0.009448	1191
0	32124	0.009449	1192
0	32127	0.00945	1193
0	32134	0.009451	1194
0	32149	0.009456	1195
0	32183	0.009466	1196
0	32186	0.009467	1197
0	32202	0.009471	1198
0	32257	0.009488	1199
0	32331	0.00951	1200
0	32353	0.009516	1201
0	32362	0.009519	1202
0	32375	0.009522	1203
0	32387	0.009526	1204
0	32409	0.009532	1205
0	32449	0.009544	1206
0	32474	0.009551	1207
0	32486	0.009555	1208
0	32498	0.009559	1209
0	32548	0.009573	1210
0	32569	0.00958	1211
0	32600	0.009589	1212
0	32610	0.009591	1213
0	32625	0.009596	1214
0	32634	0.009599	1215
0	32696	0.009617	1216
0	32727	0.009626	1217
0	32752	0.009633	1218
0	32758	0.009635	1219
0	32773	0.00964	1220
0	32780	0.009641	1221
0	32792	0.009645	1222
0	32823	0.009654	1223
0	32832	0.009657	1224
0	32838	0.009659	1225
0	32888	0.009673	1226
0	32922	0.009683	1227
0	32977	0.0097	1228
0	33018	0.009711	1229
0	33055	0.009722	1230
0	33073	0.009728	1231
0	33086	0.009731	1232
0	33231	0.009774	1233
0	33305	0.009796	1234
0	33348	0.009809	1235
0	33435	0.009834	1236
0	33463	0.009842	1237
0	33478	0.009847	1238
0	33506	0.009855	1239
0	33518	0.009859	1240
0	33534	0.009863	1241
0	33555	0.00987	1242
0	33568	0.009873	1243
0	33571	0.009874	1244
0	33651	0.009898	1245
0	33664	0.009901	1246
0	33667	0.009902	1247
0	33679	0.009906	1248
0	33685	0.009908	1249
0	33701	0.009912	1250
0	33719	0.009918	1251
0	33744	0.009925	1252
0	33781	0.009936	1253
0	33806	0.009943	1254
0	33824	0.009949	1255
0	33871	0.009962	1256
0	33892	0.009969	1257
0	34004	0.010001	1258
0	34044	0.010013	1259
0	34072	0.010021	1260
0	34075	0.010022	1261
0	34124	0.010037	1262
0	34152	0.010045	1263
0	34164	0.010049	1264
0	34167	0.01005	1265
0	34174	0.010051	1266
0	34177	0.010052	1267
0	34180	0.010053	1268
0	34211	0.010062	1269
0	34260	0.010077	1270
0	34266	0.010079	1271
0	34269	0.01008	1272
0	34279	0.010082	1273
0	34285	0.010084	1274
0	34288	0.010085	1275
0	34291	0.010086	1276
0	34310	0.010091	1277
0	34328	0.010097	1278
0	34344	0.010101	1279
0	34405	0.01012	1280
0	34418	0.010123	1281
0	34449	0.010132	1282
0	34452	0.010133	1283
0	34455	0.010134	1284
0	34489	0.010144	1285
0	34514	0.010151	1286
0	34535	0.010158	1287
0	34560	0.010165	1288
0	34569	0.010168	1289
0	34640	0.010189	1290
0	34662	0.010195	1291
0	34687	0.010202	1292
0	34724	0.010213	1293
0	34730	0.010215	1294
0	34742	0.010219	1295
0	34789	0.010232	1296
0	34795	0.010234	1297
0	34832	0.010245	1298
0	34866	0.010255	1299
0	34869	0.010256	1300
0	34872	0.010257	1301
0	34934	0.010275	1302
0	34959	0.010282	1303
0	34980	0.010289	1304
0	35033	0.010304	1305
0	35141	0.010336	1306
0	35184	0.010349	1307
0	35200	0.010353	1308
0	35286	0.010379	1309
0	35311	0.010386	1310
0	35320	0.010389	1311
0	35351	0.010398	1312
0	35357	0.0104	1313
0	35376	0.010405	1314
0	35410	0.010415	1315
0	35453	0.010428	1316
0	35475	0.010434	1317
0	35506	0.010443	1318
0	35549	0.010456	1319
0	35608	0.010473	1320
0	35620	0.010477	1321
0	35775	0.010522	1322
0	35778	0.010523	1323
0	35827	0.010538	1324
0	35892	0.010557	1325
0	35957	0.010576	1326
0	35963	0.010578	1327
0	35982	0.010583	1328
0	36003	0.01059	1329
0	36022	0.010595	1330
0	36031	0.010598	1331
0	36078	0.010611	1332
0	36087	0.010614	1333
0	36155	0.010634	1334
0	36161	0.010636	1335
0	36170	0.010639	1336
0	36195	0.010646	1337
0	36309	0.01068	1338
0	36325	0.010684	1339
0	36362	0.010695	1340
0	36427	0.010714	1341
0	36452	0.010721	1342
0	36563	0.010754	1343
0	36581	0.01076	1344
0	36615	0.01077	1345
0	36634	0.010775	1346
0	36646	0.010779	1347
0	36662	0.010783	1348
0	36665	0.010784	1349
0	36705	0.010796	1350
0	36717	0.0108	1351
0	36727	0.010802	1352
0	36761	0.010812	1353
0	36813	0.010828	1354
0	36816	0.010829	1355
0	36829	0.010832	1356
0	36853	0.01084	1357
0	36866	0.010843	1358
0	36881	0.010848	1359
0	36934	0.010863	1360
0	36996	0.010881	1361
0	37005	0.010884	1362
0	37020	0.010889	1363
0	37036	0.010893	1364
0	37042	0.010895	1365
0	37079	0.010906	1366
0	37104	0.010913	1367
0	37107	0.010914	1368
0	37159	0.01093	1369
0	37190	0.010939	1370
0	37221	0.010948	1371
0	37289	0.010968	1372