file 219953 1331216059                                          
version 2
run WRS-0-20120308-15:14:15-22379
attr configname WRS
attr datetime 20120308-15:14:15
attr experiment WRS
attr inifile omnetpp.ini
attr iterationvars ""
attr iterationvars2 $repetition=0
attr measurement ""
attr network WRS
attr processid 22379
attr repetition 0
attr replication #0
attr resultdir results
attr runnumber 0
attr seedset 0

vector 0  WRS.passiveQueue0  queueLength:vector  ETV
attr interpolationmode  sample-hold
attr title  "queue length, vector"
vector 1  WRS.passiveQueue1  queueLength:vector  ETV
attr interpolationmode  sample-hold
attr title  "queue length, vector"
vector 2  WRS.passiveQueue2  queueLength:vector  ETV
attr interpolationmode  sample-hold
attr title  "queue length, vector"
vector 3  WRS.passiveQueue3  queueLength:vector  ETV
attr interpolationmode  sample-hold
attr title  "queue length, vector"
vector 5  WRS.passiveQueue4  queueLength:vector  ETV
attr interpolationmode  sample-hold
attr title  "queue length, vector"
vector 6  WRS.passiveQueue5  queueLength:vector  ETV
attr interpolationmode  sample-hold
attr title  "queue length, vector"
vector 7  WRS.passiveQueue6  queueLength:vector  ETV
attr interpolationmode  sample-hold
attr title  "queue length, vector"
vector 8  WRS.passiveQueue7  queueLength:vector  ETV
attr interpolationmode  sample-hold
attr title  "queue length, vector"
vector 4  WRS.sink  lifeTime:vector  ETV
attr interpolationmode  none
attr title  "lifetime of arrived packets, vector"
attr unit  s
0	1474 8 0 0 0 0 1 0 0 0 0
1	1482 8 0 0 0 0 1 0 0 0 0
2	1490 8 0 0 0 0 1 0 0 0 0
3	1498 8 0 0 0 0 1 0 0 0 0
4	1506 218415 7 70000 0.00011 1.00001 10000 1e-05 1e-05 0.099999999999994 1.0000000000001e-06
5	219921 8 0 0 0 0 1 0 0 0 0
6	219929 8 0 0 0 0 1 0 0 0 0
7	219937 8 0 0 0 0 1 0 0 0 0
8	219945 8 0 0 0 0 1 0 0 0 0
