                                                                
version 2
run WRS-0-20120301-13:17:49-16771
attr configname WRS
attr datetime 20120301-13:17:49
attr experiment WRS
attr inifile omnetpp.ini
attr iterationvars ""
attr iterationvars2 $repetition=0
attr measurement ""
attr network WRS
attr processid 16771
attr repetition 0
attr replication #0
attr resultdir results
attr runnumber 0
attr seedset 0

vector 0  WRS.passiveQueue0  queueLength:vector  ETV
attr interpolationmode  sample-hold
attr title  "queue length, vector"
vector 1  WRS.passiveQueue1  queueLength:vector  ETV
attr interpolationmode  sample-hold
attr title  "queue length, vector"
vector 2  WRS.passiveQueue2  queueLength:vector  ETV
attr interpolationmode  sample-hold
attr title  "queue length, vector"
vector 3  WRS.passiveQueue3  queueLength:vector  ETV
attr interpolationmode  sample-hold
attr title  "queue length, vector"
vector 5  WRS.passiveQueue4  queueLength:vector  ETV
attr interpolationmode  sample-hold
attr title  "queue length, vector"
vector 6  WRS.passiveQueue5  queueLength:vector  ETV
attr interpolationmode  sample-hold
attr title  "queue length, vector"
vector 7  WRS.passiveQueue6  queueLength:vector  ETV
attr interpolationmode  sample-hold
attr title  "queue length, vector"
vector 8  WRS.passiveQueue7  queueLength:vector  ETV
attr interpolationmode  sample-hold
attr title  "queue length, vector"
