version 2
run WRS-0-20120308-15:14:15-22379
attr configname WRS
attr datetime 20120308-15:14:15
attr experiment WRS
attr inifile omnetpp.ini
attr iterationvars ""
attr iterationvars2 $repetition=0
attr measurement ""
attr network WRS
attr processid 22379
attr repetition 0
attr replication #0
attr resultdir results
attr runnumber 0
attr seedset 0

vector 0  WRS.passiveQueue0  queueLength:vector  ETV
attr interpolationmode  sample-hold
attr title  "queue length, vector"
vector 1  WRS.passiveQueue1  queueLength:vector  ETV
attr interpolationmode  sample-hold
attr title  "queue length, vector"
vector 2  WRS.passiveQueue2  queueLength:vector  ETV
attr interpolationmode  sample-hold
attr title  "queue length, vector"
vector 3  WRS.passiveQueue3  queueLength:vector  ETV
attr interpolationmode  sample-hold
attr title  "queue length, vector"
vector 5  WRS.passiveQueue4  queueLength:vector  ETV
attr interpolationmode  sample-hold
attr title  "queue length, vector"
vector 6  WRS.passiveQueue5  queueLength:vector  ETV
attr interpolationmode  sample-hold
attr title  "queue length, vector"
vector 7  WRS.passiveQueue6  queueLength:vector  ETV
attr interpolationmode  sample-hold
attr title  "queue length, vector"
vector 8  WRS.passiveQueue7  queueLength:vector  ETV
attr interpolationmode  sample-hold
attr title  "queue length, vector"
vector 4  WRS.sink  lifeTime:vector  ETV
attr interpolationmode  none
attr title  "lifetime of arrived packets, vector"
attr unit  s
0	0	0	0
1	0	0	0
2	0	0	0
3	0	0	0
4	7	0.00011	1e-05
4	14	0.00021	1e-05
4	21	0.00031	1e-05
4	28	0.00041	1e-05
4	35	0.00051	1e-05
4	42	0.00061	1e-05
4	49	0.00071	1e-05
4	56	0.00081	1e-05
4	63	0.00091	1e-05
4	70	0.00101	1e-05
4	77	0.00111	1e-05
4	84	0.00121	1e-05
4	91	0.00131	1e-05
4	98	0.00141	1e-05
4	105	0.00151	1e-05
4	112	0.00161	1e-05
4	119	0.00171	1e-05
4	126	0.00181	1e-05
4	133	0.00191	1e-05
4	140	0.00201	1e-05
4	147	0.00211	1e-05
4	154	0.00221	1e-05
4	161	0.00231	1e-05
4	168	0.00241	1e-05
4	175	0.00251	1e-05
4	182	0.00261	1e-05
4	189	0.00271	1e-05
4	196	0.00281	1e-05
4	203	0.00291	1e-05
4	210	0.00301	1e-05
4	217	0.00311	1e-05
4	224	0.00321	1e-05
4	231	0.00331	1e-05
4	238	0.00341	1e-05
4	245	0.00351	1e-05
4	252	0.00361	1e-05
4	259	0.00371	1e-05
4	266	0.00381	1e-05
4	273	0.00391	1e-05
4	280	0.00401	1e-05
4	287	0.00411	1e-05
4	294	0.00421	1e-05
4	301	0.00431	1e-05
4	308	0.00441	1e-05
4	315	0.00451	1e-05
4	322	0.00461	1e-05
4	329	0.00471	1e-05
4	336	0.00481	1e-05
4	343	0.00491	1e-05
4	350	0.00501	1e-05
4	357	0.00511	1e-05
4	364	0.00521	1e-05
4	371	0.00531	1e-05
4	378	0.00541	1e-05
4	385	0.00551	1e-05
4	392	0.00561	1e-05
4	399	0.00571	1e-05
4	406	0.00581	1e-05
4	413	0.00591	1e-05
4	420	0.00601	1e-05
4	427	0.00611	1e-05
4	434	0.00621	1e-05
4	441	0.00631	1e-05
4	448	0.00641	1e-05
4	455	0.00651	1e-05
4	462	0.00661	1e-05
4	469	0.00671	1e-05
4	476	0.00681	1e-05
4	483	0.00691	1e-05
4	490	0.00701	1e-05
4	497	0.00711	1e-05
4	504	0.00721	1e-05
4	511	0.00731	1e-05
4	518	0.00741	1e-05
4	525	0.00751	1e-05
4	532	0.00761	1e-05
4	539	0.00771	1e-05
4	546	0.00781	1e-05
4	553	0.00791	1e-05
4	560	0.00801	1e-05
4	567	0.00811	1e-05
4	574	0.00821	1e-05
4	581	0.00831	1e-05
4	588	0.00841	1e-05
4	595	0.00851	1e-05
4	602	0.00861	1e-05
4	609	0.00871	1e-05
4	616	0.00881	1e-05
4	623	0.00891	1e-05
4	630	0.00901	1e-05
4	637	0.00911	1e-05
4	644	0.00921	1e-05
4	651	0.00931	1e-05
4	658	0.00941	1e-05
4	665	0.00951	1e-05
4	672	0.00961	1e-05
4	679	0.00971	1e-05
4	686	0.00981	1e-05
4	693	0.00991	1e-05
4	700	0.01001	1e-05
4	707	0.01011	1e-05
4	714	0.01021	1e-05
4	721	0.01031	1e-05
4	728	0.01041	1e-05
4	735	0.01051	1e-05
4	742	0.01061	1e-05
4	749	0.01071	1e-05
4	756	0.01081	1e-05
4	763	0.01091	1e-05
4	770	0.01101	1e-05
4	777	0.01111	1e-05
4	784	0.01121	1e-05
4	791	0.01131	1e-05
4	798	0.01141	1e-05
4	805	0.01151	1e-05
4	812	0.01161	1e-05
4	819	0.01171	1e-05
4	826	0.01181	1e-05
4	833	0.01191	1e-05
4	840	0.01201	1e-05
4	847	0.01211	1e-05
4	854	0.01221	1e-05
4	861	0.01231	1e-05
4	868	0.01241	1e-05
4	875	0.01251	1e-05
4	882	0.01261	1e-05
4	889	0.01271	1e-05
4	896	0.01281	1e-05
4	903	0.01291	1e-05
4	910	0.01301	1e-05
4	917	0.01311	1e-05
4	924	0.01321	1e-05
4	931	0.01331	1e-05
4	938	0.01341	1e-05
4	945	0.01351	1e-05
4	952	0.01361	1e-05
4	959	0.01371	1e-05
4	966	0.01381	1e-05
4	973	0.01391	1e-05
4	980	0.01401	1e-05
4	987	0.01411	1e-05
4	994	0.01421	1e-05
4	1001	0.01431	1e-05
4	1008	0.01441	1e-05
4	1015	0.01451	1e-05
4	1022	0.01461	1e-05
4	1029	0.01471	1e-05
4	1036	0.01481	1e-05
4	1043	0.01491	1e-05
4	1050	0.01501	1e-05
4	1057	0.01511	1e-05
4	1064	0.01521	1e-05
4	1071	0.01531	1e-05
4	1078	0.01541	1e-05
4	1085	0.01551	1e-05
4	1092	0.01561	1e-05
4	1099	0.01571	1e-05
4	1106	0.01581	1e-05
4	1113	0.01591	1e-05
4	1120	0.01601	1e-05
4	1127	0.01611	1e-05
4	1134	0.01621	1e-05
4	1141	0.01631	1e-05
4	1148	0.01641	1e-05
4	1155	0.01651	1e-05
4	1162	0.01661	1e-05
4	1169	0.01671	1e-05
4	1176	0.01681	1e-05
4	1183	0.01691	1e-05
4	1190	0.01701	1e-05
4	1197	0.01711	1e-05
4	1204	0.01721	1e-05
4	1211	0.01731	1e-05
4	1218	0.01741	1e-05
4	1225	0.01751	1e-05
4	1232	0.01761	1e-05
4	1239	0.01771	1e-05
4	1246	0.01781	1e-05
4	1253	0.01791	1e-05
4	1260	0.01801	1e-05
4	1267	0.01811	1e-05
4	1274	0.01821	1e-05
4	1281	0.01831	1e-05
4	1288	0.01841	1e-05
4	1295	0.01851	1e-05
4	1302	0.01861	1e-05
4	1309	0.01871	1e-05
4	1316	0.01881	1e-05
4	1323	0.01891	1e-05
4	1330	0.01901	1e-05
4	1337	0.01911	1e-05
4	1344	0.01921	1e-05
4	1351	0.01931	1e-05
4	1358	0.01941	1e-05
4	1365	0.01951	1e-05
4	1372	0.01961	1e-05
4	1379	0.01971	1e-05
4	1386	0.01981	1e-05
4	1393	0.01991	1e-05
4	1400	0.02001	1e-05
4	1407	0.02011	1e-05
4	1414	0.02021	1e-05
4	1421	0.02031	1e-05
4	1428	0.02041	1e-05
4	1435	0.02051	1e-05
4	1442	0.02061	1e-05
4	1449	0.02071	1e-05
4	1456	0.02081	1e-05
4	1463	0.02091	1e-05
4	1470	0.02101	1e-05
4	1477	0.02111	1e-05
4	1484	0.02121	1e-05
4	1491	0.02131	1e-05
4	1498	0.02141	1e-05
4	1505	0.02151	1e-05
4	1512	0.02161	1e-05
4	1519	0.02171	1e-05
4	1526	0.02181	1e-05
4	1533	0.02191	1e-05
4	1540	0.02201	1e-05
4	1547	0.02211	1e-05
4	1554	0.02221	1e-05
4	1561	0.02231	1e-05
4	1568	0.02241	1e-05
4	1575	0.02251	1e-05
4	1582	0.02261	1e-05
4	1589	0.02271	1e-05
4	1596	0.02281	1e-05
4	1603	0.02291	1e-05
4	1610	0.02301	1e-05
4	1617	0.02311	1e-05
4	1624	0.02321	1e-05
4	1631	0.02331	1e-05
4	1638	0.02341	1e-05
4	1645	0.02351	1e-05
4	1652	0.02361	1e-05
4	1659	0.02371	1e-05
4	1666	0.02381	1e-05
4	1673	0.02391	1e-05
4	1680	0.02401	1e-05
4	1687	0.02411	1e-05
4	1694	0.02421	1e-05
4	1701	0.02431	1e-05
4	1708	0.02441	1e-05
4	1715	0.02451	1e-05
4	1722	0.02461	1e-05
4	1729	0.02471	1e-05
4	1736	0.02481	1e-05
4	1743	0.02491	1e-05
4	1750	0.02501	1e-05
4	1757	0.02511	1e-05
4	1764	0.02521	1e-05
4	1771	0.02531	1e-05
4	1778	0.02541	1e-05
4	1785	0.02551	1e-05
4	1792	0.02561	1e-05
4	1799	0.02571	1e-05
4	1806	0.02581	1e-05
4	1813	0.02591	1e-05
4	1820	0.02601	1e-05
4	1827	0.02611	1e-05
4	1834	0.02621	1e-05
4	1841	0.02631	1e-05
4	1848	0.02641	1e-05
4	1855	0.02651	1e-05
4	1862	0.02661	1e-05
4	1869	0.02671	1e-05
4	1876	0.02681	1e-05
4	1883	0.02691	1e-05
4	1890	0.02701	1e-05
4	1897	0.02711	1e-05
4	1904	0.02721	1e-05
4	1911	0.02731	1e-05
4	1918	0.02741	1e-05
4	1925	0.02751	1e-05
4	1932	0.02761	1e-05
4	1939	0.02771	1e-05
4	1946	0.02781	1e-05
4	1953	0.02791	1e-05
4	1960	0.02801	1e-05
4	1967	0.02811	1e-05
4	1974	0.02821	1e-05
4	1981	0.02831	1e-05
4	1988	0.02841	1e-05
4	1995	0.02851	1e-05
4	2002	0.02861	1e-05
4	2009	0.02871	1e-05
4	2016	0.02881	1e-05
4	2023	0.02891	1e-05
4	2030	0.02901	1e-05
4	2037	0.02911	1e-05
4	2044	0.02921	1e-05
4	2051	0.02931	1e-05
4	2058	0.02941	1e-05
4	2065	0.02951	1e-05
4	2072	0.02961	1e-05
4	2079	0.02971	1e-05
4	2086	0.02981	1e-05
4	2093	0.02991	1e-05
4	2100	0.03001	1e-05
4	2107	0.03011	1e-05
4	2114	0.03021	1e-05
4	2121	0.03031	1e-05
4	2128	0.03041	1e-05
4	2135	0.03051	1e-05
4	2142	0.03061	1e-05
4	2149	0.03071	1e-05
4	2156	0.03081	1e-05
4	2163	0.03091	1e-05
4	2170	0.03101	1e-05
4	2177	0.03111	1e-05
4	2184	0.03121	1e-05
4	2191	0.03131	1e-05
4	2198	0.03141	1e-05
4	2205	0.03151	1e-05
4	2212	0.03161	1e-05
4	2219	0.03171	1e-05
4	2226	0.03181	1e-05
4	2233	0.03191	1e-05
4	2240	0.03201	1e-05
4	2247	0.03211	1e-05
4	2254	0.03221	1e-05
4	2261	0.03231	1e-05
4	2268	0.03241	1e-05
4	2275	0.03251	1e-05
4	2282	0.03261	1e-05
4	2289	0.03271	1e-05
4	2296	0.03281	1e-05
4	2303	0.03291	1e-05
4	2310	0.03301	1e-05
4	2317	0.03311	1e-05
4	2324	0.03321	1e-05
4	2331	0.03331	1e-05
4	2338	0.03341	1e-05
4	2345	0.03351	1e-05
4	2352	0.03361	1e-05
4	2359	0.03371	1e-05
4	2366	0.03381	1e-05
4	2373	0.03391	1e-05
4	2380	0.03401	1e-05
4	2387	0.03411	1e-05
4	2394	0.03421	1e-05
4	2401	0.03431	1e-05
4	2408	0.03441	1e-05
4	2415	0.03451	1e-05
4	2422	0.03461	1e-05
4	2429	0.03471	1e-05
4	2436	0.03481	1e-05
4	2443	0.03491	1e-05
4	2450	0.03501	1e-05
4	2457	0.03511	1e-05
4	2464	0.03521	1e-05
4	2471	0.03531	1e-05
4	2478	0.03541	1e-05
4	2485	0.03551	1e-05
4	2492	0.03561	1e-05
4	2499	0.03571	1e-05
4	2506	0.03581	1e-05
4	2513	0.03591	1e-05
4	2520	0.03601	1e-05
4	2527	0.03611	1e-05
4	2534	0.03621	1e-05
4	2541	0.03631	1e-05
4	2548	0.03641	1e-05
4	2555	0.03651	1e-05
4	2562	0.03661	1e-05
4	2569	0.03671	1e-05
4	2576	0.03681	1e-05
4	2583	0.03691	1e-05
4	2590	0.03701	1e-05
4	2597	0.03711	1e-05
4	2604	0.03721	1e-05
4	2611	0.03731	1e-05
4	2618	0.03741	1e-05
4	2625	0.03751	1e-05
4	2632	0.03761	1e-05
4	2639	0.03771	1e-05
4	2646	0.03781	1e-05
4	2653	0.03791	1e-05
4	2660	0.03801	1e-05
4	2667	0.03811	1e-05
4	2674	0.03821	1e-05
4	2681	0.03831	1e-05
4	2688	0.03841	1e-05
4	2695	0.03851	1e-05
4	2702	0.03861	1e-05
4	2709	0.03871	1e-05
4	2716	0.03881	1e-05
4	2723	0.03891	1e-05
4	2730	0.03901	1e-05
4	2737	0.03911	1e-05
4	2744	0.03921	1e-05
4	2751	0.03931	1e-05
4	2758	0.03941	1e-05
4	2765	0.03951	1e-05
4	2772	0.03961	1e-05
4	2779	0.03971	1e-05
4	2786	0.03981	1e-05
4	2793	0.03991	1e-05
4	2800	0.04001	1e-05
4	2807	0.04011	1e-05
4	2814	0.04021	1e-05
4	2821	0.04031	1e-05
4	2828	0.04041	1e-05
4	2835	0.04051	1e-05
4	2842	0.04061	1e-05
4	2849	0.04071	1e-05
4	2856	0.04081	1e-05
4	2863	0.04091	1e-05
4	2870	0.04101	1e-05
4	2877	0.04111	1e-05
4	2884	0.04121	1e-05
4	2891	0.04131	1e-05
4	2898	0.04141	1e-05
4	2905	0.04151	1e-05
4	2912	0.04161	1e-05
4	2919	0.04171	1e-05
4	2926	0.04181	1e-05
4	2933	0.04191	1e-05
4	2940	0.04201	1e-05
4	2947	0.04211	1e-05
4	2954	0.04221	1e-05
4	2961	0.04231	1e-05
4	2968	0.04241	1e-05
4	2975	0.04251	1e-05
4	2982	0.04261	1e-05
4	2989	0.04271	1e-05
4	2996	0.04281	1e-05
4	3003	0.04291	1e-05
4	3010	0.04301	1e-05
4	3017	0.04311	1e-05
4	3024	0.04321	1e-05
4	3031	0.04331	1e-05
4	3038	0.04341	1e-05
4	3045	0.04351	1e-05
4	3052	0.04361	1e-05
4	3059	0.04371	1e-05
4	3066	0.04381	1e-05
4	3073	0.04391	1e-05
4	3080	0.04401	1e-05
4	3087	0.04411	1e-05
4	3094	0.04421	1e-05
4	3101	0.04431	1e-05
4	3108	0.04441	1e-05
4	3115	0.04451	1e-05
4	3122	0.04461	1e-05
4	3129	0.04471	1e-05
4	3136	0.04481	1e-05
4	3143	0.04491	1e-05
4	3150	0.04501	1e-05
4	3157	0.04511	1e-05
4	3164	0.04521	1e-05
4	3171	0.04531	1e-05
4	3178	0.04541	1e-05
4	3185	0.04551	1e-05
4	3192	0.04561	1e-05
4	3199	0.04571	1e-05
4	3206	0.04581	1e-05
4	3213	0.04591	1e-05
4	3220	0.04601	1e-05
4	3227	0.04611	1e-05
4	3234	0.04621	1e-05
4	3241	0.04631	1e-05
4	3248	0.04641	1e-05
4	3255	0.04651	1e-05
4	3262	0.04661	1e-05
4	3269	0.04671	1e-05
4	3276	0.04681	1e-05
4	3283	0.04691	1e-05
4	3290	0.04701	1e-05
4	3297	0.04711	1e-05
4	3304	0.04721	1e-05
4	3311	0.04731	1e-05
4	3318	0.04741	1e-05
4	3325	0.04751	1e-05
4	3332	0.04761	1e-05
4	3339	0.04771	1e-05
4	3346	0.04781	1e-05
4	3353	0.04791	1e-05
4	3360	0.04801	1e-05
4	3367	0.04811	1e-05
4	3374	0.04821	1e-05
4	3381	0.04831	1e-05
4	3388	0.04841	1e-05
4	3395	0.04851	1e-05
4	3402	0.04861	1e-05
4	3409	0.04871	1e-05
4	3416	0.04881	1e-05
4	3423	0.04891	1e-05
4	3430	0.04901	1e-05
4	3437	0.04911	1e-05
4	3444	0.04921	1e-05
4	3451	0.04931	1e-05
4	3458	0.04941	1e-05
4	3465	0.04951	1e-05
4	3472	0.04961	1e-05
4	3479	0.04971	1e-05
4	3486	0.04981	1e-05
4	3493	0.04991	1e-05
4	3500	0.05001	1e-05
4	3507	0.05011	1e-05
4	3514	0.05021	1e-05
4	3521	0.05031	1e-05
4	3528	0.05041	1e-05
4	3535	0.05051	1e-05
4	3542	0.05061	1e-05
4	3549	0.05071	1e-05
4	3556	0.05081	1e-05
4	3563	0.05091	1e-05
4	3570	0.05101	1e-05
4	3577	0.05111	1e-05
4	3584	0.05121	1e-05
4	3591	0.05131	1e-05
4	3598	0.05141	1e-05
4	3605	0.05151	1e-05
4	3612	0.05161	1e-05
4	3619	0.05171	1e-05
4	3626	0.05181	1e-05
4	3633	0.05191	1e-05
4	3640	0.05201	1e-05
4	3647	0.05211	1e-05
4	3654	0.05221	1e-05
4	3661	0.05231	1e-05
4	3668	0.05241	1e-05
4	3675	0.05251	1e-05
4	3682	0.05261	1e-05
4	3689	0.05271	1e-05
4	3696	0.05281	1e-05
4	3703	0.05291	1e-05
4	3710	0.05301	1e-05
4	3717	0.05311	1e-05
4	3724	0.05321	1e-05
4	3731	0.05331	1e-05
4	3738	0.05341	1e-05
4	3745	0.05351	1e-05
4	3752	0.05361	1e-05
4	3759	0.05371	1e-05
4	3766	0.05381	1e-05
4	3773	0.05391	1e-05
4	3780	0.05401	1e-05
4	3787	0.05411	1e-05
4	3794	0.05421	1e-05
4	3801	0.05431	1e-05
4	3808	0.05441	1e-05
4	3815	0.05451	1e-05
4	3822	0.05461	1e-05
4	3829	0.05471	1e-05
4	3836	0.05481	1e-05
4	3843	0.05491	1e-05
4	3850	0.05501	1e-05
4	3857	0.05511	1e-05
4	3864	0.05521	1e-05
4	3871	0.05531	1e-05
4	3878	0.05541	1e-05
4	3885	0.05551	1e-05
4	3892	0.05561	1e-05
4	3899	0.05571	1e-05
4	3906	0.05581	1e-05
4	3913	0.05591	1e-05
4	3920	0.05601	1e-05
4	3927	0.05611	1e-05
4	3934	0.05621	1e-05
4	3941	0.05631	1e-05
4	3948	0.05641	1e-05
4	3955	0.05651	1e-05
4	3962	0.05661	1e-05
4	3969	0.05671	1e-05
4	3976	0.05681	1e-05
4	3983	0.05691	1e-05
4	3990	0.05701	1e-05
4	3997	0.05711	1e-05
4	4004	0.05721	1e-05
4	4011	0.05731	1e-05
4	4018	0.05741	1e-05
4	4025	0.05751	1e-05
4	4032	0.05761	1e-05
4	4039	0.05771	1e-05
4	4046	0.05781	1e-05
4	4053	0.05791	1e-05
4	4060	0.05801	1e-05
4	4067	0.05811	1e-05
4	4074	0.05821	1e-05
4	4081	0.05831	1e-05
4	4088	0.05841	1e-05
4	4095	0.05851	1e-05
4	4102	0.05861	1e-05
4	4109	0.05871	1e-05
4	4116	0.05881	1e-05
4	4123	0.05891	1e-05
4	4130	0.05901	1e-05
4	4137	0.05911	1e-05
4	4144	0.05921	1e-05
4	4151	0.05931	1e-05
4	4158	0.05941	1e-05
4	4165	0.05951	1e-05
4	4172	0.05961	1e-05
4	4179	0.05971	1e-05
4	4186	0.05981	1e-05
4	4193	0.05991	1e-05
4	4200	0.06001	1e-05
4	4207	0.06011	1e-05
4	4214	0.06021	1e-05
4	4221	0.06031	1e-05
4	4228	0.06041	1e-05
4	4235	0.06051	1e-05
4	4242	0.06061	1e-05
4	4249	0.06071	1e-05
4	4256	0.06081	1e-05
4	4263	0.06091	1e-05
4	4270	0.06101	1e-05
4	4277	0.06111	1e-05
4	4284	0.06121	1e-05
4	4291	0.06131	1e-05
4	4298	0.06141	1e-05
4	4305	0.06151	1e-05
4	4312	0.06161	1e-05
4	4319	0.06171	1e-05
4	4326	0.06181	1e-05
4	4333	0.06191	1e-05
4	4340	0.06201	1e-05
4	4347	0.06211	1e-05
4	4354	0.06221	1e-05
4	4361	0.06231	1e-05
4	4368	0.06241	1e-05
4	4375	0.06251	1e-05
4	4382	0.06261	1e-05
4	4389	0.06271	1e-05
4	4396	0.06281	1e-05
4	4403	0.06291	1e-05
4	4410	0.06301	1e-05
4	4417	0.06311	1e-05
4	4424	0.06321	1e-05
4	4431	0.06331	1e-05
4	4438	0.06341	1e-05
4	4445	0.06351	1e-05
4	4452	0.06361	1e-05
4	4459	0.06371	1e-05
4	4466	0.06381	1e-05
4	4473	0.06391	1e-05
4	4480	0.06401	1e-05
4	4487	0.06411	1e-05
4	4494	0.06421	1e-05
4	4501	0.06431	1e-05
4	4508	0.06441	1e-05
4	4515	0.06451	1e-05
4	4522	0.06461	1e-05
4	4529	0.06471	1e-05
4	4536	0.06481	1e-05
4	4543	0.06491	1e-05
4	4550	0.06501	1e-05
4	4557	0.06511	1e-05
4	4564	0.06521	1e-05
4	4571	0.06531	1e-05
4	4578	0.06541	1e-05
4	4585	0.06551	1e-05
4	4592	0.06561	1e-05
4	4599	0.06571	1e-05
4	4606	0.06581	1e-05
4	4613	0.06591	1e-05
4	4620	0.06601	1e-05
4	4627	0.06611	1e-05
4	4634	0.06621	1e-05
4	4641	0.06631	1e-05
4	4648	0.06641	1e-05
4	4655	0.06651	1e-05
4	4662	0.06661	1e-05
4	4669	0.06671	1e-05
4	4676	0.06681	1e-05
4	4683	0.06691	1e-05
4	4690	0.06701	1e-05
4	4697	0.06711	1e-05
4	4704	0.06721	1e-05
4	4711	0.06731	1e-05
4	4718	0.06741	1e-05
4	4725	0.06751	1e-05
4	4732	0.06761	1e-05
4	4739	0.06771	1e-05
4	4746	0.06781	1e-05
4	4753	0.06791	1e-05
4	4760	0.06801	1e-05
4	4767	0.06811	1e-05
4	4774	0.06821	1e-05
4	4781	0.06831	1e-05
4	4788	0.06841	1e-05
4	4795	0.06851	1e-05
4	4802	0.06861	1e-05
4	4809	0.06871	1e-05
4	4816	0.06881	1e-05
4	4823	0.06891	1e-05
4	4830	0.06901	1e-05
4	4837	0.06911	1e-05
4	4844	0.06921	1e-05
4	4851	0.06931	1e-05
4	4858	0.06941	1e-05
4	4865	0.06951	1e-05
4	4872	0.06961	1e-05
4	4879	0.06971	1e-05
4	4886	0.06981	1e-05
4	4893	0.06991	1e-05
4	4900	0.07001	1e-05
4	4907	0.07011	1e-05
4	4914	0.07021	1e-05
4	4921	0.07031	1e-05
4	4928	0.07041	1e-05
4	4935	0.07051	1e-05
4	4942	0.07061	1e-05
4	4949	0.07071	1e-05
4	4956	0.07081	1e-05
4	4963	0.07091	1e-05
4	4970	0.07101	1e-05
4	4977	0.07111	1e-05
4	4984	0.07121	1e-05
4	4991	0.07131	1e-05
4	4998	0.07141	1e-05
4	5005	0.07151	1e-05
4	5012	0.07161	1e-05
4	5019	0.07171	1e-05
4	5026	0.07181	1e-05
4	5033	0.07191	1e-05
4	5040	0.07201	1e-05
4	5047	0.07211	1e-05
4	5054	0.07221	1e-05
4	5061	0.07231	1e-05
4	5068	0.07241	1e-05
4	5075	0.07251	1e-05
4	5082	0.07261	1e-05
4	5089	0.07271	1e-05
4	5096	0.07281	1e-05
4	5103	0.07291	1e-05
4	5110	0.07301	1e-05
4	5117	0.07311	1e-05
4	5124	0.07321	1e-05
4	5131	0.07331	1e-05
4	5138	0.07341	1e-05
4	5145	0.07351	1e-05
4	5152	0.07361	1e-05
4	5159	0.07371	1e-05
4	5166	0.07381	1e-05
4	5173	0.07391	1e-05
4	5180	0.07401	1e-05
4	5187	0.07411	1e-05
4	5194	0.07421	1e-05
4	5201	0.07431	1e-05
4	5208	0.07441	1e-05
4	5215	0.07451	1e-05
4	5222	0.07461	1e-05
4	5229	0.07471	1e-05
4	5236	0.07481	1e-05
4	5243	0.07491	1e-05
4	5250	0.07501	1e-05
4	5257	0.07511	1e-05
4	5264	0.07521	1e-05
4	5271	0.07531	1e-05
4	5278	0.07541	1e-05
4	5285	0.07551	1e-05
4	5292	0.07561	1e-05
4	5299	0.07571	1e-05
4	5306	0.07581	1e-05
4	5313	0.07591	1e-05
4	5320	0.07601	1e-05
4	5327	0.07611	1e-05
4	5334	0.07621	1e-05
4	5341	0.07631	1e-05
4	5348	0.07641	1e-05
4	5355	0.07651	1e-05
4	5362	0.07661	1e-05
4	5369	0.07671	1e-05
4	5376	0.07681	1e-05
4	5383	0.07691	1e-05
4	5390	0.07701	1e-05
4	5397	0.07711	1e-05
4	5404	0.07721	1e-05
4	5411	0.07731	1e-05
4	5418	0.07741	1e-05
4	5425	0.07751	1e-05
4	5432	0.07761	1e-05
4	5439	0.07771	1e-05
4	5446	0.07781	1e-05
4	5453	0.07791	1e-05
4	5460	0.07801	1e-05
4	5467	0.07811	1e-05
4	5474	0.07821	1e-05
4	5481	0.07831	1e-05
4	5488	0.07841	1e-05
4	5495	0.07851	1e-05
4	5502	0.07861	1e-05
4	5509	0.07871	1e-05
4	5516	0.07881	1e-05
4	5523	0.07891	1e-05
4	5530	0.07901	1e-05
4	5537	0.07911	1e-05
4	5544	0.07921	1e-05
4	5551	0.07931	1e-05
4	5558	0.07941	1e-05
4	5565	0.07951	1e-05
4	5572	0.07961	1e-05
4	5579	0.07971	1e-05
4	5586	0.07981	1e-05
4	5593	0.07991	1e-05
4	5600	0.08001	1e-05
4	5607	0.08011	1e-05
4	5614	0.08021	1e-05
4	5621	0.08031	1e-05
4	5628	0.08041	1e-05
4	5635	0.08051	1e-05
4	5642	0.08061	1e-05
4	5649	0.08071	1e-05
4	5656	0.08081	1e-05
4	5663	0.08091	1e-05
4	5670	0.08101	1e-05
4	5677	0.08111	1e-05
4	5684	0.08121	1e-05
4	5691	0.08131	1e-05
4	5698	0.08141	1e-05
4	5705	0.08151	1e-05
4	5712	0.08161	1e-05
4	5719	0.08171	1e-05
4	5726	0.08181	1e-05
4	5733	0.08191	1e-05
4	5740	0.08201	1e-05
4	5747	0.08211	1e-05
4	5754	0.08221	1e-05
4	5761	0.08231	1e-05
4	5768	0.08241	1e-05
4	5775	0.08251	1e-05
4	5782	0.08261	1e-05
4	5789	0.08271	1e-05
4	5796	0.08281	1e-05
4	5803	0.08291	1e-05
4	5810	0.08301	1e-05
4	5817	0.08311	1e-05
4	5824	0.08321	1e-05
4	5831	0.08331	1e-05
4	5838	0.08341	1e-05
4	5845	0.08351	1e-05
4	5852	0.08361	1e-05
4	5859	0.08371	1e-05
4	5866	0.08381	1e-05
4	5873	0.08391	1e-05
4	5880	0.08401	1e-05
4	5887	0.08411	1e-05
4	5894	0.08421	1e-05
4	5901	0.08431	1e-05
4	5908	0.08441	1e-05
4	5915	0.08451	1e-05
4	5922	0.08461	1e-05
4	5929	0.08471	1e-05
4	5936	0.08481	1e-05
4	5943	0.08491	1e-05
4	5950	0.08501	1e-05
4	5957	0.08511	1e-05
4	5964	0.08521	1e-05
4	5971	0.08531	1e-05
4	5978	0.08541	1e-05
4	5985	0.08551	1e-05
4	5992	0.08561	1e-05
4	5999	0.08571	1e-05
4	6006	0.08581	1e-05
4	6013	0.08591	1e-05
4	6020	0.08601	1e-05
4	6027	0.08611	1e-05
4	6034	0.08621	1e-05
4	6041	0.08631	1e-05
4	6048	0.08641	1e-05
4	6055	0.08651	1e-05
4	6062	0.08661	1e-05
4	6069	0.08671	1e-05
4	6076	0.08681	1e-05
4	6083	0.08691	1e-05
4	6090	0.08701	1e-05
4	6097	0.08711	1e-05
4	6104	0.08721	1e-05
4	6111	0.08731	1e-05
4	6118	0.08741	1e-05
4	6125	0.08751	1e-05
4	6132	0.08761	1e-05
4	6139	0.08771	1e-05
4	6146	0.08781	1e-05
4	6153	0.08791	1e-05
4	6160	0.08801	1e-05
4	6167	0.08811	1e-05
4	6174	0.08821	1e-05
4	6181	0.08831	1e-05
4	6188	0.08841	1e-05
4	6195	0.08851	1e-05
4	6202	0.08861	1e-05
4	6209	0.08871	1e-05
4	6216	0.08881	1e-05
4	6223	0.08891	1e-05
4	6230	0.08901	1e-05
4	6237	0.08911	1e-05
4	6244	0.08921	1e-05
4	6251	0.08931	1e-05
4	6258	0.08941	1e-05
4	6265	0.08951	1e-05
4	6272	0.08961	1e-05
4	6279	0.08971	1e-05
4	6286	0.08981	1e-05
4	6293	0.08991	1e-05
4	6300	0.09001	1e-05
4	6307	0.09011	1e-05
4	6314	0.09021	1e-05
4	6321	0.09031	1e-05
4	6328	0.09041	1e-05
4	6335	0.09051	1e-05
4	6342	0.09061	1e-05
4	6349	0.09071	1e-05
4	6356	0.09081	1e-05
4	6363	0.09091	1e-05
4	6370	0.09101	1e-05
4	6377	0.09111	1e-05
4	6384	0.09121	1e-05
4	6391	0.09131	1e-05
4	6398	0.09141	1e-05
4	6405	0.09151	1e-05
4	6412	0.09161	1e-05
4	6419	0.09171	1e-05
4	6426	0.09181	1e-05
4	6433	0.09191	1e-05
4	6440	0.09201	1e-05
4	6447	0.09211	1e-05
4	6454	0.09221	1e-05
4	6461	0.09231	1e-05
4	6468	0.09241	1e-05
4	6475	0.09251	1e-05
4	6482	0.09261	1e-05
4	6489	0.09271	1e-05
4	6496	0.09281	1e-05
4	6503	0.09291	1e-05
4	6510	0.09301	1e-05
4	6517	0.09311	1e-05
4	6524	0.09321	1e-05
4	6531	0.09331	1e-05
4	6538	0.09341	1e-05
4	6545	0.09351	1e-05
4	6552	0.09361	1e-05
4	6559	0.09371	1e-05
4	6566	0.09381	1e-05
4	6573	0.09391	1e-05
4	6580	0.09401	1e-05
4	6587	0.09411	1e-05
4	6594	0.09421	1e-05
4	6601	0.09431	1e-05
4	6608	0.09441	1e-05
4	6615	0.09451	1e-05
4	6622	0.09461	1e-05
4	6629	0.09471	1e-05
4	6636	0.09481	1e-05
4	6643	0.09491	1e-05
4	6650	0.09501	1e-05
4	6657	0.09511	1e-05
4	6664	0.09521	1e-05
4	6671	0.09531	1e-05
4	6678	0.09541	1e-05
4	6685	0.09551	1e-05
4	6692	0.09561	1e-05
4	6699	0.09571	1e-05
4	6706	0.09581	1e-05
4	6713	0.09591	1e-05
4	6720	0.09601	1e-05
4	6727	0.09611	1e-05
4	6734	0.09621	1e-05
4	6741	0.09631	1e-05
4	6748	0.09641	1e-05
4	6755	0.09651	1e-05
4	6762	0.09661	1e-05
4	6769	0.09671	1e-05
4	6776	0.09681	1e-05
4	6783	0.09691	1e-05
4	6790	0.09701	1e-05
4	6797	0.09711	1e-05
4	6804	0.09721	1e-05
4	6811	0.09731	1e-05
4	6818	0.09741	1e-05
4	6825	0.09751	1e-05
4	6832	0.09761	1e-05
4	6839	0.09771	1e-05
4	6846	0.09781	1e-05
4	6853	0.09791	1e-05
4	6860	0.09801	1e-05
4	6867	0.09811	1e-05
4	6874	0.09821	1e-05
4	6881	0.09831	1e-05
4	6888	0.09841	1e-05
4	6895	0.09851	1e-05
4	6902	0.09861	1e-05
4	6909	0.09871	1e-05
4	6916	0.09881	1e-05
4	6923	0.09891	1e-05
4	6930	0.09901	1e-05
4	6937	0.09911	1e-05
4	6944	0.09921	1e-05
4	6951	0.09931	1e-05
4	6958	0.09941	1e-05
4	6965	0.09951	1e-05
4	6972	0.09961	1e-05
4	6979	0.09971	1e-05
4	6986	0.09981	1e-05
4	6993	0.09991	1e-05
4	7000	0.10001	1e-05
4	7007	0.10011	1e-05
4	7014	0.10021	1e-05
4	7021	0.10031	1e-05
4	7028	0.10041	1e-05
4	7035	0.10051	1e-05
4	7042	0.10061	1e-05
4	7049	0.10071	1e-05
4	7056	0.10081	1e-05
4	7063	0.10091	1e-05
4	7070	0.10101	1e-05
4	7077	0.10111	1e-05
4	7084	0.10121	1e-05
4	7091	0.10131	1e-05
4	7098	0.10141	1e-05
4	7105	0.10151	1e-05
4	7112	0.10161	1e-05
4	7119	0.10171	1e-05
4	7126	0.10181	1e-05
4	7133	0.10191	1e-05
4	7140	0.10201	1e-05
4	7147	0.10211	1e-05
4	7154	0.10221	1e-05
4	7161	0.10231	1e-05
4	7168	0.10241	1e-05
4	7175	0.10251	1e-05
4	7182	0.10261	1e-05
4	7189	0.10271	1e-05
4	7196	0.10281	1e-05
4	7203	0.10291	1e-05
4	7210	0.10301	1e-05
4	7217	0.10311	1e-05
4	7224	0.10321	1e-05
4	7231	0.10331	1e-05
4	7238	0.10341	1e-05
4	7245	0.10351	1e-05
4	7252	0.10361	1e-05
4	7259	0.10371	1e-05
4	7266	0.10381	1e-05
4	7273	0.10391	1e-05
4	7280	0.10401	1e-05
4	7287	0.10411	1e-05
4	7294	0.10421	1e-05
4	7301	0.10431	1e-05
4	7308	0.10441	1e-05
4	7315	0.10451	1e-05
4	7322	0.10461	1e-05
4	7329	0.10471	1e-05
4	7336	0.10481	1e-05
4	7343	0.10491	1e-05
4	7350	0.10501	1e-05
4	7357	0.10511	1e-05
4	7364	0.10521	1e-05
4	7371	0.10531	1e-05
4	7378	0.10541	1e-05
4	7385	0.10551	1e-05
4	7392	0.10561	1e-05
4	7399	0.10571	1e-05
4	7406	0.10581	1e-05
4	7413	0.10591	1e-05
4	7420	0.10601	1e-05
4	7427	0.10611	1e-05
4	7434	0.10621	1e-05
4	7441	0.10631	1e-05
4	7448	0.10641	1e-05
4	7455	0.10651	1e-05
4	7462	0.10661	1e-05
4	7469	0.10671	1e-05
4	7476	0.10681	1e-05
4	7483	0.10691	1e-05
4	7490	0.10701	1e-05
4	7497	0.10711	1e-05
4	7504	0.10721	1e-05
4	7511	0.10731	1e-05
4	7518	0.10741	1e-05
4	7525	0.10751	1e-05
4	7532	0.10761	1e-05
4	7539	0.10771	1e-05
4	7546	0.10781	1e-05
4	7553	0.10791	1e-05
4	7560	0.10801	1e-05
4	7567	0.10811	1e-05
4	7574	0.10821	1e-05
4	7581	0.10831	1e-05
4	7588	0.10841	1e-05
4	7595	0.10851	1e-05
4	7602	0.10861	1e-05
4	7609	0.10871	1e-05
4	7616	0.10881	1e-05
4	7623	0.10891	1e-05
4	7630	0.10901	1e-05
4	7637	0.10911	1e-05
4	7644	0.10921	1e-05
4	7651	0.10931	1e-05
4	7658	0.10941	1e-05
4	7665	0.10951	1e-05
4	7672	0.10961	1e-05
4	7679	0.10971	1e-05
4	7686	0.10981	1e-05
4	7693	0.10991	1e-05
4	7700	0.11001	1e-05
4	7707	0.11011	1e-05
4	7714	0.11021	1e-05
4	7721	0.11031	1e-05
4	7728	0.11041	1e-05
4	7735	0.11051	1e-05
4	7742	0.11061	1e-05
4	7749	0.11071	1e-05
4	7756	0.11081	1e-05
4	7763	0.11091	1e-05
4	7770	0.11101	1e-05
4	7777	0.11111	1e-05
4	7784	0.11121	1e-05
4	7791	0.11131	1e-05
4	7798	0.11141	1e-05
4	7805	0.11151	1e-05
4	7812	0.11161	1e-05
4	7819	0.11171	1e-05
4	7826	0.11181	1e-05
4	7833	0.11191	1e-05
4	7840	0.11201	1e-05
4	7847	0.11211	1e-05
4	7854	0.11221	1e-05
4	7861	0.11231	1e-05
4	7868	0.11241	1e-05
4	7875	0.11251	1e-05
4	7882	0.11261	1e-05
4	7889	0.11271	1e-05
4	7896	0.11281	1e-05
4	7903	0.11291	1e-05
4	7910	0.11301	1e-05
4	7917	0.11311	1e-05
4	7924	0.11321	1e-05
4	7931	0.11331	1e-05
4	7938	0.11341	1e-05
4	7945	0.11351	1e-05
4	7952	0.11361	1e-05
4	7959	0.11371	1e-05
4	7966	0.11381	1e-05
4	7973	0.11391	1e-05
4	7980	0.11401	1e-05
4	7987	0.11411	1e-05
4	7994	0.11421	1e-05
4	8001	0.11431	1e-05
4	8008	0.11441	1e-05
4	8015	0.11451	1e-05
4	8022	0.11461	1e-05
4	8029	0.11471	1e-05
4	8036	0.11481	1e-05
4	8043	0.11491	1e-05
4	8050	0.11501	1e-05
4	8057	0.11511	1e-05
4	8064	0.11521	1e-05
4	8071	0.11531	1e-05
4	8078	0.11541	1e-05
4	8085	0.11551	1e-05
4	8092	0.11561	1e-05
4	8099	0.11571	1e-05
4	8106	0.11581	1e-05
4	8113	0.11591	1e-05
4	8120	0.11601	1e-05
4	8127	0.11611	1e-05
4	8134	0.11621	1e-05
4	8141	0.11631	1e-05
4	8148	0.11641	1e-05
4	8155	0.11651	1e-05
4	8162	0.11661	1e-05
4	8169	0.11671	1e-05
4	8176	0.11681	1e-05
4	8183	0.11691	1e-05
4	8190	0.11701	1e-05
4	8197	0.11711	1e-05
4	8204	0.11721	1e-05
4	8211	0.11731	1e-05
4	8218	0.11741	1e-05
4	8225	0.11751	1e-05
4	8232	0.11761	1e-05
4	8239	0.11771	1e-05
4	8246	0.11781	1e-05
4	8253	0.11791	1e-05
4	8260	0.11801	1e-05
4	8267	0.11811	1e-05
4	8274	0.11821	1e-05
4	8281	0.11831	1e-05
4	8288	0.11841	1e-05
4	8295	0.11851	1e-05
4	8302	0.11861	1e-05
4	8309	0.11871	1e-05
4	8316	0.11881	1e-05
4	8323	0.11891	1e-05
4	8330	0.11901	1e-05
4	8337	0.11911	1e-05
4	8344	0.11921	1e-05
4	8351	0.11931	1e-05
4	8358	0.11941	1e-05
4	8365	0.11951	1e-05
4	8372	0.11961	1e-05
4	8379	0.11971	1e-05
4	8386	0.11981	1e-05
4	8393	0.11991	1e-05
4	8400	0.12001	1e-05
4	8407	0.12011	1e-05
4	8414	0.12021	1e-05
4	8421	0.12031	1e-05
4	8428	0.12041	1e-05
4	8435	0.12051	1e-05
4	8442	0.12061	1e-05
4	8449	0.12071	1e-05
4	8456	0.12081	1e-05
4	8463	0.12091	1e-05
4	8470	0.12101	1e-05
4	8477	0.12111	1e-05
4	8484	0.12121	1e-05
4	8491	0.12131	1e-05
4	8498	0.12141	1e-05
4	8505	0.12151	1e-05
4	8512	0.12161	1e-05
4	8519	0.12171	1e-05
4	8526	0.12181	1e-05
4	8533	0.12191	1e-05
4	8540	0.12201	1e-05
4	8547	0.12211	1e-05
4	8554	0.12221	1e-05
4	8561	0.12231	1e-05
4	8568	0.12241	1e-05
4	8575	0.12251	1e-05
4	8582	0.12261	1e-05
4	8589	0.12271	1e-05
4	8596	0.12281	1e-05
4	8603	0.12291	1e-05
4	8610	0.12301	1e-05
4	8617	0.12311	1e-05
4	8624	0.12321	1e-05
4	8631	0.12331	1e-05
4	8638	0.12341	1e-05
4	8645	0.12351	1e-05
4	8652	0.12361	1e-05
4	8659	0.12371	1e-05
4	8666	0.12381	1e-05
4	8673	0.12391	1e-05
4	8680	0.12401	1e-05
4	8687	0.12411	1e-05
4	8694	0.12421	1e-05
4	8701	0.12431	1e-05
4	8708	0.12441	1e-05
4	8715	0.12451	1e-05
4	8722	0.12461	1e-05
4	8729	0.12471	1e-05
4	8736	0.12481	1e-05
4	8743	0.12491	1e-05
4	8750	0.12501	1e-05
4	8757	0.12511	1e-05
4	8764	0.12521	1e-05
4	8771	0.12531	1e-05
4	8778	0.12541	1e-05
4	8785	0.12551	1e-05
4	8792	0.12561	1e-05
4	8799	0.12571	1e-05
4	8806	0.12581	1e-05
4	8813	0.12591	1e-05
4	8820	0.12601	1e-05
4	8827	0.12611	1e-05
4	8834	0.12621	1e-05
4	8841	0.12631	1e-05
4	8848	0.12641	1e-05
4	8855	0.12651	1e-05
4	8862	0.12661	1e-05
4	8869	0.12671	1e-05
4	8876	0.12681	1e-05
4	8883	0.12691	1e-05
4	8890	0.12701	1e-05
4	8897	0.12711	1e-05
4	8904	0.12721	1e-05
4	8911	0.12731	1e-05
4	8918	0.12741	1e-05
4	8925	0.12751	1e-05
4	8932	0.12761	1e-05
4	8939	0.12771	1e-05
4	8946	0.12781	1e-05
4	8953	0.12791	1e-05
4	8960	0.12801	1e-05
4	8967	0.12811	1e-05
4	8974	0.12821	1e-05
4	8981	0.12831	1e-05
4	8988	0.12841	1e-05
4	8995	0.12851	1e-05
4	9002	0.12861	1e-05
4	9009	0.12871	1e-05
4	9016	0.12881	1e-05
4	9023	0.12891	1e-05
4	9030	0.12901	1e-05
4	9037	0.12911	1e-05
4	9044	0.12921	1e-05
4	9051	0.12931	1e-05
4	9058	0.12941	1e-05
4	9065	0.12951	1e-05
4	9072	0.12961	1e-05
4	9079	0.12971	1e-05
4	9086	0.12981	1e-05
4	9093	0.12991	1e-05
4	9100	0.13001	1e-05
4	9107	0.13011	1e-05
4	9114	0.13021	1e-05
4	9121	0.13031	1e-05
4	9128	0.13041	1e-05
4	9135	0.13051	1e-05
4	9142	0.13061	1e-05
4	9149	0.13071	1e-05
4	9156	0.13081	1e-05
4	9163	0.13091	1e-05
4	9170	0.13101	1e-05
4	9177	0.13111	1e-05
4	9184	0.13121	1e-05
4	9191	0.13131	1e-05
4	9198	0.13141	1e-05
4	9205	0.13151	1e-05
4	9212	0.13161	1e-05
4	9219	0.13171	1e-05
4	9226	0.13181	1e-05
4	9233	0.13191	1e-05
4	9240	0.13201	1e-05
4	9247	0.13211	1e-05
4	9254	0.13221	1e-05
4	9261	0.13231	1e-05
4	9268	0.13241	1e-05
4	9275	0.13251	1e-05
4	9282	0.13261	1e-05
4	9289	0.13271	1e-05
4	9296	0.13281	1e-05
4	9303	0.13291	1e-05
4	9310	0.13301	1e-05
4	9317	0.13311	1e-05
4	9324	0.13321	1e-05
4	9331	0.13331	1e-05
4	9338	0.13341	1e-05
4	9345	0.13351	1e-05
4	9352	0.13361	1e-05
4	9359	0.13371	1e-05
4	9366	0.13381	1e-05
4	9373	0.13391	1e-05
4	9380	0.13401	1e-05
4	9387	0.13411	1e-05
4	9394	0.13421	1e-05
4	9401	0.13431	1e-05
4	9408	0.13441	1e-05
4	9415	0.13451	1e-05
4	9422	0.13461	1e-05
4	9429	0.13471	1e-05
4	9436	0.13481	1e-05
4	9443	0.13491	1e-05
4	9450	0.13501	1e-05
4	9457	0.13511	1e-05
4	9464	0.13521	1e-05
4	9471	0.13531	1e-05
4	9478	0.13541	1e-05
4	9485	0.13551	1e-05
4	9492	0.13561	1e-05
4	9499	0.13571	1e-05
4	9506	0.13581	1e-05
4	9513	0.13591	1e-05
4	9520	0.13601	1e-05
4	9527	0.13611	1e-05
4	9534	0.13621	1e-05
4	9541	0.13631	1e-05
4	9548	0.13641	1e-05