version 2
run WRS1-0-20120510-07:52:02-7249
attr configname WRS1
attr datetime 20120510-07:52:02
attr experiment WRS1
attr inifile omnetpp.ini
attr iterationvars ""
attr iterationvars2 $repetition=0
attr measurement ""
attr network WRS1
attr processid 7249
attr repetition 0
attr replication #0
attr resultdir results
attr runnumber 0
attr seedset 0

vector 0  WRS1.passiveQueue0  queueLength:vector  ETV
attr interpolationmode  sample-hold
attr title  "queue length, vector"
vector 1  WRS1.passiveQueue1  queueLength:vector  ETV
attr interpolationmode  sample-hold
attr title  "queue length, vector"
vector 2  WRS1.passiveQueue2  queueLength:vector  ETV
attr interpolationmode  sample-hold
attr title  "queue length, vector"
vector 3  WRS1.passiveQueue3  queueLength:vector  ETV
attr interpolationmode  sample-hold
attr title  "queue length, vector"
vector 13  WRS1.passiveQueue4  queueLength:vector  ETV
attr interpolationmode  sample-hold
attr title  "queue length, vector"
vector 14  WRS1.passiveQueue5  queueLength:vector  ETV
attr interpolationmode  sample-hold
attr title  "queue length, vector"
vector 15  WRS1.passiveQueue6  queueLength:vector  ETV
attr interpolationmode  sample-hold
attr title  "queue length, vector"
vector 16  WRS1.passiveQueue7  queueLength:vector  ETV
attr interpolationmode  sample-hold
attr title  "queue length, vector"
vector 11  WRS1.sink  lifeTime7:vector  ETV
attr interpolationmode  none
attr title  "lifetime of arrived packets prio 7, vector"
attr unit  s
vector 12  WRS1.sink  lifeTime:vector  ETV
attr interpolationmode  none
attr title  "lifetime of arrived packets, vector"
attr unit  s
vector 10  WRS1.sink  lifeTime6:vector  ETV
attr interpolationmode  none
attr title  "lifetime of arrived packets prio 6, vector"
attr unit  s
vector 9  WRS1.sink  lifeTime5:vector  ETV
attr interpolationmode  none
attr title  "lifetime of arrived packets prio 5, vector"
attr unit  s
vector 8  WRS1.sink  lifeTime4:vector  ETV
attr interpolationmode  none
attr title  "lifetime of arrived packets prio 4, vector"
attr unit  s
vector 7  WRS1.sink  lifeTime3:vector  ETV
attr interpolationmode  none
attr title  "lifetime of arrived packets prio 3, vector"
attr unit  s
vector 6  WRS1.sink  lifeTime2:vector  ETV
attr interpolationmode  none
attr title  "lifetime of arrived packets prio 2, vector"
attr unit  s
vector 5  WRS1.sink  lifeTime1:vector  ETV
attr interpolationmode  none
attr title  "lifetime of arrived packets prio 1, vector"
attr unit  s
vector 4  WRS1.sink  lifeTime0:vector  ETV
attr interpolationmode  none
attr title  "lifetime of arrived packets prio 0, vector"
attr unit  s
0	0	0	0
1	0	0	0
2	0	0	0
3	0	0	0
4	203	0.000913	0.000113
4	942	0.004213	0.000113
4	1792	0.008013	0.000113
4	2621	0.011713	0.000113
4	3515	0.015713	0.000413
4	4277	0.019113	0.000113
4	5127	0.022913	0.000113
4	6000	0.026813	0.000113
4	6783	0.030313	0.000113
4	7612	0.034013	0.000113
4	8508	0.038013	0.000113
4	9335	0.041713	0.000113
4	10118	0.045213	0.000113
4	10991	0.049113	0.000113
4	11843	0.052913	0.000113
4	12603	0.056313	0.000113
4	13499	0.060313	0.000113
4	14328	0.064013	0.000113
4	15178	0.067813	0.000113
4	15984	0.071413	0.000113
4	16834	0.075213	0.000113
4	17663	0.078913	0.000113
4	18557	0.082913	0.000213
4	19296	0.086213	0.000113
4	20148	0.090013	0.000113
4	21021	0.093913	0.000113
4	21871	0.097713	0.000413
4	22631	0.101113	0.000113
4	23527	0.105113	0.000113
4	24356	0.108813	0.000113
4	25139	0.112313	0.000113
4	26012	0.116213	0.000113
4	26862	0.120013	0.000113
4	27691	0.123713	0.000113
4	28520	0.127413	0.000313
4	29347	0.131113	0.000113
4	30197	0.134913	0.000113
4	30959	0.138313	0.000113
4	31855	0.142313	0.000113
4	32682	0.146013	0.000113
4	33534	0.149813	0.000113
4	34340	0.153413	0.000113
4	35190	0.157213	0.000113
4	35996	0.160813	0.000113
4	36890	0.164813	0.000113
4	37652	0.168213	0.000113
4	38502	0.172013	0.000113
4	39375	0.175913	0.000113
4	40227	0.179713	0.000413
4	40987	0.183113	0.000113
4	41883	0.187113	0.000113
4	42710	0.190813	0.000113
4	43495	0.194313	0.000113
4	44368	0.198213	0.000113
4	45218	0.202013	0.000113
4	46047	0.205713	0.000113
4	46874	0.209413	0.000113
4	47703	0.213113	0.000113
4	48553	0.216913	0.000113
4	49359	0.220513	0.000113
4	50209	0.224313	0.000113
4	51038	0.228013	0.000113
4	51934	0.232013	0.000113
4	52694	0.235413	0.000113
4	53546	0.239213	0.000213
4	54350	0.242813	0.000113
4	55246	0.246813	0.000113
4	56008	0.250213	0.000113
4	56858	0.254013	0.000113
4	57731	0.257913	0.000113
4	58581	0.261713	0.000413
4	59343	0.265113	0.000113
4	60239	0.269113	0.000113
4	61066	0.272813	0.000113
4	61849	0.276313	0.000113
4	62722	0.280213	0.000113
4	63574	0.284013	0.000113
4	64401	0.287713	0.000113
4	65230	0.291413	0.000113
4	66059	0.295113	0.000113
4	66909	0.298913	0.000113
4	67715	0.302513	0.000113
4	68565	0.306313	0.000113
4	69394	0.310013	0.000113
4	70288	0.314013	0.000113
4	71027	0.317313	0.000113
4	71879	0.321113	0.000113
4	72752	0.325013	0.000113
4	73602	0.328813	0.000113
4	74362	0.332213	0.000113
4	75258	0.336213	0.000113
4	76087	0.339913	0.000113
4	76937	0.343713	0.000413
4	77743	0.347313	0.000113
4	78593	0.351113	0.000113
4	79422	0.354813	0.000113
4	80249	0.358513	0.000313
4	81078	0.362213	0.000113
4	81928	0.366013	0.000113
4	82757	0.369713	0.000113
4	83586	0.373413	0.000113
4	84413	0.377113	0.000113
4	85265	0.380913	0.000113
4	86069	0.384513	0.000113
4	86921	0.388313	0.000113
4	87748	0.392013	0.000113
4	88644	0.396013	0.000213
4	89383	0.399313	0.000113
4	90233	0.403113	0.000113
4	91106	0.407013	0.000113
4	91958	0.410813	0.000113
4	92718	0.414213	0.000113
4	93614	0.418213	0.000113
4	94441	0.421913	0.000113
4	95293	0.425713	0.000413
4	96099	0.429313	0.000113
4	96949	0.433113	0.000113
4	97778	0.436813	0.000113
4	98605	0.440513	0.000113
4	99434	0.444213	0.000113
4	100284	0.448013	0.000113
4	101157	0.451913	0.000113
4	101940	0.455413	0.000113
4	102769	0.459113	0.000113
4	103665	0.463113	0.000113
4	104425	0.466513	0.000113
4	105275	0.470313	0.000113
4	106081	0.473913	0.000113
4	106977	0.477913	0.000113
4	107739	0.481313	0.000113
4	108589	0.485113	0.000113
4	109462	0.489013	0.000113
4	110312	0.492813	0.000113
4	111074	0.496213	0.000113
4	111968	0.500213	0.000113
4	112797	0.503913	0.000113
4	113647	0.507713	0.000413
4	114453	0.511313	0.000113
4	115305	0.515113	0.000113
4	116132	0.518813	0.000113
4	116961	0.522513	0.000113
4	117788	0.526213	0.000113
4	118640	0.530013	0.000113
4	119513	0.533913	0.000113
4	120296	0.537413	0.000113
4	121125	0.541113	0.000113
4	122019	0.545113	0.000113
4	122781	0.548513	0.000113
4	123631	0.552313	0.000213
4	124481	0.556113	0.000113
4	125333	0.559913	0.000113
4	126093	0.563313	0.000113
4	126989	0.567313	0.000113
4	127818	0.571013	0.000113
4	128668	0.574813	0.000113
4	129474	0.578413	0.000113
4	130324	0.582213	0.000113
4	131153	0.585913	0.000113
4	132047	0.589913	0.000613
4	132809	0.593313	0.000113
4	133659	0.597113	0.000113
4	134488	0.600813	0.000113
4	135317	0.604513	0.000113
4	136144	0.608213	0.000113
4	136994	0.612013	0.000113
4	137867	0.615913	0.000113
4	138652	0.619413	0.000113
4	139479	0.623113	0.000113
4	140375	0.627113	0.000113
4	141114	0.630413	0.000113
4	141964	0.634213	0.000113
4	142837	0.638113	0.000113
4	143687	0.641913	0.000113
4	144449	0.645313	0.000113
4	145345	0.649313	0.000113
4	146172	0.653013	0.000113
4	147024	0.656813	0.000113
4	147830	0.660413	0.000113
4	148680	0.664213	0.000113
4	149507	0.667913	0.000113
4	150403	0.671913	0.000413
4	151165	0.675313	0.000113
4	152015	0.679113	0.000113
4	152888	0.683013	0.000113
4	153671	0.686513	0.000113
4	154500	0.690213	0.000113
4	155396	0.694213	0.000113
4	156223	0.697913	0.000113
4	157006	0.701413	0.000113
4	157835	0.705113	0.000113
4	158731	0.709113	0.000213
4	159470	0.712413	0.000113
4	160320	0.716213	0.000113
4	161193	0.720113	0.000113
4	162043	0.723913	0.000113
4	162805	0.727313	0.000113
4	163699	0.731313	0.000113
4	164528	0.735013	0.000113
4	165378	0.738813	0.000113
4	166184	0.742413	0.000113
4	167036	0.746213	0.000113
4	167863	0.749913	0.000113
4	168759	0.753913	0.000413
4	169519	0.757313	0.000113
4	170371	0.761113	0.000113
4	171244	0.765013	0.000113
4	172027	0.768513	0.000113
4	172856	0.772213	0.000113
4	173750	0.776213	0.000113
4	174579	0.779913	0.000113
4	175362	0.783413	0.000113
4	176212	0.787213	0.000113
4	177064	0.791013	0.000113
4	177824	0.794413	0.000113
4	178720	0.798413	0.000113
4	179549	0.802113	0.000113
4	180399	0.805913	0.000113
4	181205	0.809513	0.000113
4	182055	0.813313	0.000113
4	182884	0.817013	0.000113
4	183778	0.821013	0.000313
4	184540	0.824413	0.000113
4	185390	0.828213	0.000113
4	186219	0.831913	0.000113
4	187115	0.835913	0.000413
4	187875	0.839313	0.000113
4	188725	0.843113	0.000113
4	189598	0.847013	0.000113
4	190383	0.850513	0.000113
4	191210	0.854213	0.000113
4	192106	0.858213	0.000113
4	192935	0.861913	0.000113
4	193718	0.865413	0.000213
4	194568	0.869213	0.000113
4	195418	0.873013	0.000113
4	196180	0.876413	0.000113
4	197076	0.880413	0.000113
4	197903	0.884113	0.000113
4	198755	0.887913	0.000113
4	199559	0.891513	0.000113
4	200411	0.895313	0.000113
4	201238	0.899013	0.000113
4	202134	0.903013	0.000113
4	202896	0.906413	0.000113
5	202	0.000913	0.000213
5	739	0.003313	0.000113
5	1411	0.006313	0.000213
5	2039	0.009113	0.000113
5	2688	0.012013	0.000113
5	3314	0.014813	0.000113
5	3963	0.017713	0.000413
5	4545	0.020313	0.000113
5	5194	0.023213	0.000113
5	5822	0.026013	0.000113
5	6471	0.028913	0.000113
5	7120	0.031813	0.000113
5	7702	0.034413	0.000113
5	8328	0.037213	0.000113
5	8977	0.040113	0.000113
5	9626	0.043013	0.000113
5	10275	0.045913	0.000113
5	10836	0.048413	0.000113
5	11485	0.051313	0.000113
5	12134	0.054213	0.000113
5	12783	0.057113	0.000113
5	13409	0.059913	0.000113
5	14058	0.062813	0.000113
5	14619	0.065313	0.000113
5	15289	0.068313	0.000113
5	15894	0.071013	0.000113
5	16566	0.074013	0.000113
5	17192	0.076813	0.000113
5	17864	0.079813	0.000413
5	18402	0.082213	0.000113
5	19072	0.085213	0.000113
5	19700	0.088013	0.000113
5	20372	0.091013	0.000113
5	20975	0.093713	0.000113
5	21580	0.096413	0.000113
5	22206	0.099213	0.000113
5	22878	0.102213	0.000113
5	23483	0.104913	0.000113
5	24155	0.107913	0.000113
5	24714	0.110413	0.000113
5	25386	0.113413	0.000113
5	26011	0.116213	0.000213
5	26661	0.119113	0.000113
5	27287	0.121913	0.000113
5	27959	0.124913	0.000213
5	28519	0.127413	0.000113
5	29146	0.130213	0.000113
5	29795	0.133113	0.000113
5	30444	0.136013	0.000113
5	31093	0.138913	0.000113
5	31721	0.141713	0.000413
5	32303	0.144313	0.000113
5	32952	0.147213	0.000113
5	33601	0.150113	0.000113
5	34227	0.152913	0.000113
5	34876	0.155813	0.000113
5	35458	0.158413	0.000113
5	36107	0.161313	0.000113
5	36735	0.164113	0.000113
5	37384	0.167013	0.000113
5	38033	0.169913	0.000113
5	38615	0.172513	0.000113
5	39241	0.175313	0.000113
5	39890	0.178213	0.000113
5	40539	0.181113	0.000113
5	41167	0.183913	0.000113
5	41816	0.186813	0.000113
5	42375	0.189313	0.000113
5	43047	0.192313	0.000113
5	43673	0.195113	0.000113
5	44322	0.198013	0.000113
5	44950	0.200813	0.000113
5	45620	0.203813	0.000413
5	46181	0.206313	0.000113
5	46830	0.209213	0.000113
5	47456	0.212013	0.000113
5	48128	0.215013	0.000113
5	48754	0.217813	0.000113
5	49358	0.220513	0.000213
5	49964	0.223213	0.000113
5	50636	0.226213	0.000113
5	51262	0.229013	0.000113
5	51933	0.232013	0.000213
5	52470	0.234413	0.000113
5	53142	0.237413	0.000113
5	53768	0.240213	0.000113
5	54440	0.243213	0.000213
5	55045	0.245913	0.000113
5	55694	0.248813	0.000113
5	56276	0.251413	0.000113
5	56925	0.254313	0.000113
5	57551	0.257113	0.000113
5	58202	0.260013	0.000113
5	58851	0.262913	0.000113
5	59500	0.265813	0.000413
5	60059	0.268313	0.000113
5	60708	0.271213	0.000113
5	61357	0.274113	0.000113
5	62006	0.277013	0.000113
5	62634	0.279813	0.000113
5	63216	0.282413	0.000113
5	63865	0.285313	0.000113
5	64514	0.288213	0.000113
5	65140	0.291013	0.000113
5	65789	0.293913	0.000113
5	66371	0.296513	0.000113
5	67020	0.299413	0.000113
5	67625	0.302113	0.000113
5	68297	0.305113	0.000113
5	68923	0.307913	0.000113
5	69595	0.310913	0.000113
5	70133	0.313313	0.000113
5	70803	0.316313	0.000113
5	71431	0.319113	0.000113
5	72101	0.322113	0.000113
5	72706	0.324813	0.000113
5	73378	0.327813	0.000413
5	73937	0.330313	0.000113
5	74609	0.333313	0.000113
5	75214	0.336013	0.000113
5	75884	0.339013	0.000113
5	76512	0.341813	0.000113
5	77117	0.344513	0.000113
5	77742	0.347313	0.000213
5	78392	0.350213	0.000113
5	79018	0.353013	0.000113
5	79690	0.356013	0.000113
5	80248	0.358513	0.000113
5	80900	0.361413	0.000213
5	81526	0.364213	0.000113
5	82175	0.367113	0.000113
5	82824	0.370013	0.000113
5	83450	0.372813	0.000113
5	84032	0.375413	0.000113
5	84683	0.378313	0.000113
5	85332	0.381213	0.000113
5	85958	0.384013	0.000113
5	86607	0.386913	0.000113
5	87256	0.389813	0.000413
5	87838	0.392413	0.000113
5	88466	0.395213	0.000113
5	89115	0.398113	0.000113
5	89764	0.401013	0.000113
5	90413	0.403913	0.000113
5	90972	0.406413	0.000113
5	91621	0.409313	0.000113
5	92270	0.412213	0.000113
5	92919	0.415113	0.000113
5	93547	0.417913	0.000113
5	94106	0.420413	0.000113
5	94778	0.423413	0.000113
5	95404	0.426213	0.000113
5	96053	0.429113	0.000113
5	96681	0.431913	0.000113
5	97351	0.434913	0.000113
5	97912	0.437413	0.000113
5	98561	0.440313	0.000113
5	99187	0.443113	0.000113
5	99859	0.446113	0.000113
5	100485	0.448913	0.000113
5	101156	0.451913	0.000513
5	101695	0.454313	0.000113
5	102365	0.457313	0.000113
5	102993	0.460113	0.000113
5	103664	0.463113	0.000213
5	104268	0.465813	0.000113
5	104873	0.468513	0.000113
5	105499	0.471313	0.000113
5	106171	0.474313	0.000113
5	106776	0.477013	0.000113
5	107448	0.480013	0.000213
5	108007	0.482513	0.000113
5	108656	0.485413	0.000113
5	109282	0.488213	0.000113
5	109931	0.491113	0.000113
5	110582	0.494013	0.000113
5	111231	0.496913	0.000113
5	111790	0.499413	0.000113
5	112439	0.502313	0.000113
5	113088	0.505213	0.000113
5	113737	0.508113	0.000113
5	114365	0.510913	0.000113
5	115014	0.513813	0.000413
5	115596	0.516413	0.000113
5	116245	0.519313	0.000113
5	116871	0.522113	0.000113
5	117520	0.525013	0.000113
5	118169	0.527913	0.000113
5	118751	0.530513	0.000113
5	119379	0.533313	0.000113
5	120028	0.536213	0.000113
5	120654	0.539013	0.000113
5	121326	0.542013	0.000113
5	121862	0.544413	0.000113
5	122534	0.547413	0.000113
5	123162	0.550213	0.000113
5	123832	0.553213	0.000113
5	124437	0.555913	0.000113
5	125109	0.558913	0.000113
5	125668	0.561413	0.000113
5	126340	0.564413	0.000113
5	126945	0.567113	0.000113
5	127615	0.570113	0.000113
5	128243	0.572913	0.000113
5	128915	0.575913	0.000413
5	129473	0.578413	0.000213
5	130123	0.581313	0.000113
5	130749	0.584113	0.000113
5	131421	0.587113	0.000113
5	132046	0.589913	0.000113
5	132629	0.592513	0.000113
5	133257	0.595313	0.000113
5	133929	0.598313	0.000213
5	134555	0.601113	0.000113
5	135181	0.603913	0.000113
5	135763	0.606513	0.000113
5	136412	0.609413	0.000113
5	137063	0.612313	0.000113
5	137689	0.615113	0.000113
5	138338	0.618013	0.000113
5	138987	0.620913	0.000113
5	139569	0.623513	0.000113
5	140195	0.626313	0.000113
5	140846	0.629213	0.000113
5	141495	0.632113	0.000113
5	142144	0.635013	0.000113
5	142770	0.637813	0.000413
5	143352	0.640413	0.000113
5	144001	0.643313	0.000113
5	144650	0.646213	0.000113
5	145278	0.649013	0.000113
5	145927	0.651913	0.000113
5	146509	0.654513	0.000113
5	147135	0.657313	0.000113
5	147784	0.660213	0.000113
5	148412	0.663013	0.000113
5	149082	0.666013	0.000113
5	149643	0.668513	0.000113
5	150292	0.671413	0.000113
5	150918	0.674213	0.000113
5	151590	0.677213	0.000113
5	152216	0.680013	0.000113
5	152887	0.683013	0.000213
5	153426	0.685413	0.000113
5	154096	0.688413	0.000113
5	154724	0.691213	0.000113
5	155395	0.694213	0.000213
5	155999	0.696913	0.000113
5	156671	0.699913	0.000413
5	157230	0.702413	0.000113
5	157902	0.705413	0.000113
5	158507	0.708113	0.000113
5	159179	0.711113	0.000113
5	159805	0.713913	0.000113
5	160410	0.716613	0.000213
5	161013	0.719313	0.000113
5	161662	0.722213	0.000113
5	162311	0.725113	0.000113
5	162962	0.728013	0.000113
5	163521	0.730513	0.000113
5	164170	0.733413	0.000113
5	164819	0.736313	0.000113
5	165468	0.739213	0.000113
5	166094	0.742013	0.000113
5	166745	0.744913	0.000113
5	167327	0.747513	0.000113
5	167976	0.750413	0.000113
5	168602	0.753213	0.000113
5	169251	0.756113	0.000113
5	169900	0.759013	0.000113
5	170549	0.761913	0.000413
5	171110	0.764413	0.000113
5	171759	0.767313	0.000113
5	172408	0.770213	0.000113
5	173057	0.773113	0.000113
5	173660	0.775813	0.000113
5	174265	0.778513	0.000113
5	174893	0.781313	0.000113
5	175563	0.784313	0.000113
5	176168	0.787013	0.000113
5	176840	0.790013	0.000113
5	177399	0.792513	0.000113
5	178071	0.795513	0.000113
5	178676	0.798213	0.000113
5	179346	0.801213	0.000113
5	179974	0.804013	0.000113
5	180644	0.807013	0.000113
5	181204	0.809513	0.000213
5	181854	0.812413	0.000113
5	182480	0.815213	0.000113
5	183152	0.818213	0.000113
5	183777	0.821013	0.000113
5	184427	0.823913	0.000413
5	184988	0.826413	0.000113
5	185660	0.829413	0.000113
5	186286	0.832213	0.000113
5	186935	0.835113	0.000213
5	187561	0.837913	0.000113
5	188143	0.840513	0.000113
5	188792	0.843413	0.000113
5	189420	0.846213	0.000113
5	190069	0.849113	0.000113
5	190718	0.852013	0.000113
5	191300	0.854613	0.000113
5	191926	0.857413	0.000113
5	192575	0.860313	0.000113
5	193226	0.863213	0.000113
5	193875	0.866113	0.000113
5	194501	0.868913	0.000113
5	195083	0.871513	0.000113
5	195732	0.874413	0.000113
5	196381	0.877313	0.000113
5	197009	0.880113	0.000113
5	197658	0.883013	0.000113
5	198307	0.885913	0.000413
5	198889	0.888513	0.000113
5	199515	0.891313	0.000113
5	200141	0.894113	0.000113
5	200813	0.897113	0.000113
5	201441	0.899913	0.000113
5	202023	0.902513	0.000113
5	202649	0.905313	0.000113
5	203321	0.908313	0.000113
6	201	0.000913	0.000313
6	738	0.003313	0.000213
6	1410	0.006313	0.000313
6	2038	0.009113	0.000213
6	2687	0.012013	0.000213
6	3313	0.014813	0.000213
6	3962	0.017713	0.000513
6	4544	0.020313	0.000213
6	5193	0.023213	0.000213
6	5821	0.026013	0.000213
6	6470	0.028913	0.000213
6	7119	0.031813	0.000213
6	7701	0.034413	0.000213
6	8327	0.037213	0.000213
6	8976	0.040113	0.000213
6	9625	0.043013	0.000213
6	10274	0.045913	0.000213
6	10835	0.048413	0.000213
6	11484	0.051313	0.000213
6	12133	0.054213	0.000213
6	12782	0.057113	0.000213
6	13408	0.059913	0.000213
6	14057	0.062813	0.000213
6	14618	0.065313	0.000213
6	15288	0.068313	0.000213
6	15893	0.071013	0.000213
6	16565	0.074013	0.000213
6	17191	0.076813	0.000213
6	17863	0.079813	0.000513
6	18401	0.082213	0.000213
6	19071	0.085213	0.000213
6	19699	0.088013	0.000213
6	20371	0.091013	0.000213
6	20974	0.093713	0.000213
6	21579	0.096413	0.000213
6	22205	0.099213	0.000213
6	22877	0.102213	0.000213
6	23482	0.104913	0.000213
6	24154	0.107913	0.000213
6	24713	0.110413	0.000213
6	25385	0.113413	0.000213
6	26010	0.116213	0.000313
6	26660	0.119113	0.000213
6	27286	0.121913	0.000213
6	27958	0.124913	0.000313
6	28518	0.127413	0.000213
6	29145	0.130213	0.000213
6	29794	0.133113	0.000213
6	30443	0.136013	0.000213
6	31092	0.138913	0.000213
6	31720	0.141713	0.000513
6	32302	0.144313	0.000213
6	32951	0.147213	0.000213
6	33600	0.150113	0.000213
6	34226	0.152913	0.000213
6	34875	0.155813	0.000213
6	35457	0.158413	0.000213
6	36106	0.161313	0.000213
6	36734	0.164113	0.000213
6	37383	0.167013	0.000213
6	38032	0.169913	0.000213
6	38614	0.172513	0.000213
6	39240	0.175313	0.000213
6	39889	0.178213	0.000213
6	40538	0.181113	0.000213
6	41166	0.183913	0.000213
6	41815	0.186813	0.000213
6	42374	0.189313	0.000213
6	43046	0.192313	0.000213
6	43672	0.195113	0.000213
6	44321	0.198013	0.000213
6	44949	0.200813	0.000213
6	45619	0.203813	0.000513
6	46180	0.206313	0.000213
6	46829	0.209213	0.000213
6	47455	0.212013	0.000213
6	48127	0.215013	0.000213
6	48753	0.217813	0.000213
6	49357	0.220513	0.000313
6	49963	0.223213	0.000213
6	50635	0.226213	0.000213
6	51261	0.229013	0.000213
6	51932	0.232013	0.000313
6	52469	0.234413	0.000213
6	53141	0.237413	0.000213
6	53767	0.240213	0.000213
6	54439	0.243213	0.000313
6	55044	0.245913	0.000213
6	55693	0.248813	0.000213
6	56275	0.251413	0.000213
6	56924	0.254313	0.000213
6	57550	0.257113	0.000213
6	58201	0.260013	0.000213
6	58850	0.262913	0.000213
6	59499	0.265813	0.000513
6	60058	0.268313	0.000213
6	60707	0.271213	0.000213
6	61356	0.274113	0.000213
6	62005	0.277013	0.000213
6	62633	0.279813	0.000213
6	63215	0.282413	0.000213
6	63864	0.285313	0.000213
6	64513	0.288213	0.000213
6	65139	0.291013	0.000213
6	65788	0.293913	0.000213
6	66370	0.296513	0.000213
6	67019	0.299413	0.000213
6	67624	0.302113	0.000213
6	68296	0.305113	0.000213
6	68922	0.307913	0.000213
6	69594	0.310913	0.000213
6	70132	0.313313	0.000213
6	70802	0.316313	0.000213
6	71430	0.319113	0.000213
6	72100	0.322113	0.000213
6	72705	0.324813	0.000213
6	73377	0.327813	0.000513
6	73936	0.330313	0.000213
6	74608	0.333313	0.000213
6	75213	0.336013	0.000213
6	75883	0.339013	0.000213
6	76511	0.341813	0.000213
6	77116	0.344513	0.000213
6	77741	0.347313	0.000313
6	78391	0.350213	0.000213
6	79017	0.353013	0.000213
6	79689	0.356013	0.000213
6	80247	0.358513	0.000213
6	80899	0.361413	0.000313
6	81525	0.364213	0.000213
6	82174	0.367113	0.000213
6	82823	0.370013	0.000213
6	83449	0.372813	0.000213
6	84031	0.375413	0.000213
6	84682	0.378313	0.000213
6	85331	0.381213	0.000213
6	85957	0.384013	0.000213
6	86606	0.386913	0.000213
6	87255	0.389813	0.000513
6	87837	0.392413	0.000213
6	88465	0.395213	0.000213
6	89114	0.398113	0.000213
6	89763	0.401013	0.000213
6	90412	0.403913	0.000213
6	90971	0.406413	0.000213
6	91620	0.409313	0.000213
6	92269	0.412213	0.000213
6	92918	0.415113	0.000213
6	93546	0.417913	0.000213
6	94105	0.420413	0.000213
6	94777	0.423413	0.000213
6	95403	0.426213	0.000213
6	96052	0.429113	0.000213
6	96680	0.431913	0.000213
6	97350	0.434913	0.000213
6	97911	0.437413	0.000213
6	98560	0.440313	0.000213
6	99186	0.443113	0.000213
6	99858	0.446113	0.000213
6	100484	0.448913	0.000213
6	101155	0.451913	0.000613
6	101694	0.454313	0.000213
6	102364	0.457313	0.000213
6	102992	0.460113	0.000213
6	103663	0.463113	0.000313
6	104267	0.465813	0.000213
6	104872	0.468513	0.000213
6	105498	0.471313	0.000213
6	106170	0.474313	0.000213
6	106775	0.477013	0.000213
6	107447	0.480013	0.000313
6	108006	0.482513	0.000213
6	108655	0.485413	0.000213
6	109281	0.488213	0.000213
6	109930	0.491113	0.000213
6	110581	0.494013	0.000213
6	111230	0.496913	0.000213
6	111789	0.499413	0.000213
6	112438	0.502313	0.000213
6	113087	0.505213	0.000213
6	113736	0.508113	0.000213
6	114364	0.510913	0.000213
6	115013	0.513813	0.000513
6	115595	0.516413	0.000213
6	116244	0.519313	0.000213
6	116870	0.522113	0.000213
6	117519	0.525013	0.000213
6	118168	0.527913	0.000213
6	118750	0.530513	0.000213
6	119378	0.533313	0.000213
6	120027	0.536213	0.000213
6	120653	0.539013	0.000213
6	121325	0.542013	0.000213
6	121861	0.544413	0.000213
6	122533	0.547413	0.000213
6	123161	0.550213	0.000213
6	123831	0.553213	0.000213
6	124436	0.555913	0.000213
6	125108	0.558913	0.000213
6	125667	0.561413	0.000213
6	126339	0.564413	0.000213
6	126944	0.567113	0.000213
6	127614	0.570113	0.000213
6	128242	0.572913	0.000213
6	128914	0.575913	0.000513
6	129472	0.578413	0.000313
6	130122	0.581313	0.000213
6	130748	0.584113	0.000213
6	131420	0.587113	0.000213
6	132045	0.589913	0.000213
6	132628	0.592513	0.000213
6	133256	0.595313	0.000213
6	133928	0.598313	0.000313
6	134554	0.601113	0.000213
6	135180	0.603913	0.000213
6	135762	0.606513	0.000213
6	136411	0.609413	0.000213
6	137062	0.612313	0.000213
6	137688	0.615113	0.000213
6	138337	0.618013	0.000213
6	138986	0.620913	0.000213
6	139568	0.623513	0.000213
6	140194	0.626313	0.000213
6	140845	0.629213	0.000213
6	141494	0.632113	0.000213
6	142143	0.635013	0.000213
6	142769	0.637813	0.000513
6	143351	0.640413	0.000213
6	144000	0.643313	0.000213
6	144649	0.646213	0.000213
6	145277	0.649013	0.000213
6	145926	0.651913	0.000213
6	146508	0.654513	0.000213
6	147134	0.657313	0.000213
6	147783	0.660213	0.000213
6	148411	0.663013	0.000213
6	149081	0.666013	0.000213
6	149642	0.668513	0.000213
6	150291	0.671413	0.000213
6	150917	0.674213	0.000213
6	151589	0.677213	0.000213
6	152215	0.680013	0.000213
6	152886	0.683013	0.000313
6	153425	0.685413	0.000213
6	154095	0.688413	0.000213
6	154723	0.691213	0.000213
6	155394	0.694213	0.000313
6	155998	0.696913	0.000213
6	156670	0.699913	0.000513
6	157229	0.702413	0.000213
6	157901	0.705413	0.000213
6	158506	0.708113	0.000213
6	159178	0.711113	0.000213
6	159804	0.713913	0.000213
6	160409	0.716613	0.000313
6	161012	0.719313	0.000213
6	161661	0.722213	0.000213
6	162310	0.725113	0.000213
6	162961	0.728013	0.000213
6	163520	0.730513	0.000213
6	164169	0.733413	0.000213
6	164818	0.736313	0.000213
6	165467	0.739213	0.000213
6	166093	0.742013	0.000213
6	166744	0.744913	0.000213
6	167326	0.747513	0.000213
6	167975	0.750413	0.000213
6	168601	0.753213	0.000213
6	169250	0.756113	0.000213
6	169899	0.759013	0.000213
6	170548	0.761913	0.000513
6	171109	0.764413	0.000213
6	171758	0.767313	0.000213
6	172407	0.770213	0.000213
6	173056	0.773113	0.000213
6	173659	0.775813	0.000213
6	174264	0.778513	0.000213
6	174892	0.781313	0.000213
6	175562	0.784313	0.000213
6	176167	0.787013	0.000213
6	176839	0.790013	0.000213
6	177398	0.792513	0.000213
6	178070	0.795513	0.000213
6	178675	0.798213	0.000213
6	179345	0.801213	0.000213
6	179973	0.804013	0.000213
6	180643	0.807013	0.000213
6	181203	0.809513	0.000313
6	181853	0.812413	0.000213
6	182479	0.815213	0.000213
6	183151	0.818213	0.000213
6	183776	0.821013	0.000213
6	184426	0.823913	0.000513
6	184987	0.826413	0.000213
6	185659	0.829413	0.000213
6	186285	0.832213	0.000213
6	186934	0.835113	0.000313
6	187560	0.837913	0.000213
6	188142	0.840513	0.000213
6	188791	0.843413	0.000213
6	189419	0.846213	0.000213
6	190068	0.849113	0.000213
6	190717	0.852013	0.000213
6	191299	0.854613	0.000213
6	191925	0.857413	0.000213
6	192574	0.860313	0.000213
6	193225	0.863213	0.000213
6	193874	0.866113	0.000213
6	194500	0.868913	0.000213
6	195082	0.871513	0.000213
6	195731	0.874413	0.000213
6	196380	0.877313	0.000213
6	197008	0.880113	0.000213
6	197657	0.883013	0.000213
6	198306	0.885913	0.000513
6	198888	0.888513	0.000213
6	199514	0.891313	0.000213
6	200140	0.894113	0.000213
6	200812	0.897113	0.000213
6	201440	0.899913	0.000213
6	202022	0.902513	0.000213
6	202648	0.905313	0.000213
6	203320	0.908313	0.000213
7	200	0.000913	0.000413
7	515	0.002313	0.000113
7	986	0.004413	0.000113
7	1409	0.006313	0.000113
7	1836	0.008213	0.000113
7	2261	0.010113	0.000113
7	2732	0.012213	0.000113
7	3113	0.013913	0.000113
7	3582	0.016013	0.000113
7	4007	0.017913	0.000113
7	4434	0.019813	0.000113
7	4859	0.021713	0.000113
7	5328	0.023813	0.000413
7	5642	0.025213	0.000113
7	6113	0.027313	0.000113
7	6538	0.029213	0.000113
7	6963	0.031113	0.000113
7	7388	0.033013	0.000113
7	7859	0.035113	0.000113
7	8238	0.036813	0.000113
7	8709	0.038913	0.000113
7	9134	0.040813	0.000113
7	9559	0.042713	0.000113
7	9917	0.044313	0.000113
7	10388	0.046413	0.000113
7	10769	0.048113	0.000113
7	11238	0.050213	0.000113
7	11663	0.052113	0.000113
7	12132	0.054213	0.000313
7	12515	0.055913	0.000113
7	12984	0.058013	0.000113
7	13407	0.059913	0.000313
7	13834	0.061813	0.000113
7	14261	0.063713	0.000113
7	14730	0.065813	0.000413
7	15044	0.067213	0.000113
7	15513	0.069313	0.000113
7	15938	0.071213	0.000113
7	16365	0.073113	0.000113
7	16790	0.075013	0.000113
7	17259	0.077113	0.000113
7	17662	0.078913	0.000213
7	18111	0.080913	0.000113
7	18556	0.082913	0.000113
7	18961	0.084713	0.000113
7	19342	0.086413	0.000113
7	19790	0.088413	0.000113
7	20192	0.090213	0.000113
7	20640	0.092213	0.000113
7	21088	0.094213	0.000113
7	21490	0.096013	0.000113
7	21938	0.098013	0.000113
7	22386	0.100013	0.000113
7	22788	0.101813	0.000113
7	23236	0.103813	0.000113
7	23684	0.105813	0.000113
7	24086	0.107613	0.000413
7	24467	0.109313	0.000113
7	24915	0.111313	0.000113
7	25319	0.113113	0.000113
7	25765	0.115113	0.000113
7	26213	0.117113	0.000113
7	26659	0.119113	0.000313
7	27065	0.120913	0.000113
7	27511	0.122913	0.000113
7	27957	0.124913	0.000113
7	28363	0.126713	0.000113
7	28742	0.128413	0.000113
7	29190	0.130413	0.000113
7	29594	0.132213	0.000113
7	30042	0.134213	0.000113
7	30488	0.136213	0.000113
7	30892	0.138013	0.000113
7	31340	0.140013	0.000113
7	31788	0.142013	0.000113
7	32190	0.143813	0.000113
7	32638	0.145813	0.000113
7	33086	0.147813	0.000113
7	33488	0.149613	0.000413
7	33869	0.151313	0.000113
7	34339	0.153413	0.000213
7	34719	0.155113	0.000113
7	35189	0.157213	0.000213
7	35615	0.159113	0.000113
7	36040	0.161013	0.000113
7	36465	0.162913	0.000113
7	36936	0.165013	0.000113
7	37317	0.166713	0.000113
7	37786	0.168813	0.000113
7	38144	0.170413	0.000113
7	38613	0.172513	0.000313
7	38996	0.174213	0.000113
7	39465	0.176313	0.000113
7	39888	0.178213	0.000313
7	40315	0.180113	0.000113
7	40742	0.182013	0.000113
7	41211	0.184113	0.000113
7	41592	0.185813	0.000113
7	42061	0.187913	0.000113
7	42488	0.189813	0.000113
7	42913	0.191713	0.000413
7	43271	0.193313	0.000113
7	43740	0.195413	0.000113
7	44121	0.197113	0.000113
7	44592	0.199213	0.000113
7	45017	0.201113	0.000113
7	45442	0.203013	0.000113
7	45867	0.204913	0.000113
7	46338	0.207013	0.000113
7	46717	0.208713	0.000113
7	47188	0.210813	0.000113
7	47546	0.212413	0.000113
7	47971	0.214313	0.000113
7	48396	0.216213	0.000113
7	48867	0.218313	0.000113
7	49248	0.220013	0.000113
7	49717	0.222113	0.000113
7	50142	0.224013	0.000113
7	50567	0.225913	0.000113
7	50994	0.227813	0.000113
7	51463	0.229913	0.000113
7	51844	0.231613	0.000113
7	52313	0.233713	0.000413
7	52693	0.235413	0.000213
7	53140	0.237413	0.000313
7	53545	0.239213	0.000113
7	53992	0.241213	0.000113
7	54438	0.243213	0.000113
7	54844	0.245013	0.000113
7	55292	0.247013	0.000113
7	55738	0.249013	0.000113
7	56142	0.250813	0.000113
7	56590	0.252813	0.000113
7	56969	0.254513	0.000113
7	57373	0.256313	0.000113
7	57821	0.258313	0.000113
7	58269	0.260313	0.000113
7	58671	0.262113	0.000113
7	59119	0.264113	0.000113
7	59567	0.266113	0.000113
7	59969	0.267913	0.000113
7	60417	0.269913	0.000113
7	60865	0.271913	0.000113
7	61267	0.273713	0.000113
7	61715	0.275713	0.000413
7	62096	0.277413	0.000113
7	62498	0.279213	0.000113