file 488871 1336629123                                          
version 2
run WRS1-0-20120510-07:52:02-7249
attr configname WRS1
attr datetime 20120510-07:52:02
attr experiment WRS1
attr inifile omnetpp.ini
attr iterationvars ""
attr iterationvars2 $repetition=0
attr measurement ""
attr network WRS1
attr processid 7249
attr repetition 0
attr replication #0
attr resultdir results
attr runnumber 0
attr seedset 0

vector 0  WRS1.passiveQueue0  queueLength:vector  ETV
attr interpolationmode  sample-hold
attr title  "queue length, vector"
vector 1  WRS1.passiveQueue1  queueLength:vector  ETV
attr interpolationmode  sample-hold
attr title  "queue length, vector"
vector 2  WRS1.passiveQueue2  queueLength:vector  ETV
attr interpolationmode  sample-hold
attr title  "queue length, vector"
vector 3  WRS1.passiveQueue3  queueLength:vector  ETV
attr interpolationmode  sample-hold
attr title  "queue length, vector"
vector 13  WRS1.passiveQueue4  queueLength:vector  ETV
attr interpolationmode  sample-hold
attr title  "queue length, vector"
vector 14  WRS1.passiveQueue5  queueLength:vector  ETV
attr interpolationmode  sample-hold
attr title  "queue length, vector"
vector 15  WRS1.passiveQueue6  queueLength:vector  ETV
attr interpolationmode  sample-hold
attr title  "queue length, vector"
vector 16  WRS1.passiveQueue7  queueLength:vector  ETV
attr interpolationmode  sample-hold
attr title  "queue length, vector"
vector 11  WRS1.sink  lifeTime7:vector  ETV
attr interpolationmode  none
attr title  "lifetime of arrived packets prio 7, vector"
attr unit  s
vector 12  WRS1.sink  lifeTime:vector  ETV
attr interpolationmode  none
attr title  "lifetime of arrived packets, vector"
attr unit  s
vector 10  WRS1.sink  lifeTime6:vector  ETV
attr interpolationmode  none
attr title  "lifetime of arrived packets prio 6, vector"
attr unit  s
vector 9  WRS1.sink  lifeTime5:vector  ETV
attr interpolationmode  none
attr title  "lifetime of arrived packets prio 5, vector"
attr unit  s
vector 8  WRS1.sink  lifeTime4:vector  ETV
attr interpolationmode  none
attr title  "lifetime of arrived packets prio 4, vector"
attr unit  s
vector 7  WRS1.sink  lifeTime3:vector  ETV
attr interpolationmode  none
attr title  "lifetime of arrived packets prio 3, vector"
attr unit  s
vector 6  WRS1.sink  lifeTime2:vector  ETV
attr interpolationmode  none
attr title  "lifetime of arrived packets prio 2, vector"
attr unit  s
vector 5  WRS1.sink  lifeTime1:vector  ETV
attr interpolationmode  none
attr title  "lifetime of arrived packets prio 1, vector"
attr unit  s
vector 4  WRS1.sink  lifeTime0:vector  ETV
attr interpolationmode  none
attr title  "lifetime of arrived packets prio 0, vector"
attr unit  s
0	2628 8 0 0 0 0 1 0 0 0 0
1	2636 8 0 0 0 0 1 0 0 0 0
2	2644 8 0 0 0 0 1 0 0 0 0
3	2652 8 0 0 0 0 1 0 0 0 0
4	2660 6454 203 202896 0.000913 0.906413 244 0.000113 0.000613 0.032272 5.507836e-06
5	9114 8544 202 203321 0.000913 0.908313 323 0.000113 0.000513 0.042899 7.170787e-06
6	17658 8544 201 203320 0.000913 0.908313 323 0.000213 0.000613 0.075199 1.8980587e-05
7	26202 12618 200 203566 0.000913 0.909413 477 0.000113 0.000613 0.067001 1.2381413e-05
8	38820 24049 199 203455 0.000913 0.908913 909 0.000113 0.000513 0.121617 1.9008421e-05
9	62869 24049 198 203454 0.000913 0.908913 909 0.000213 0.000613 0.212517 5.2421821e-05
10	86918 24958 197 203453 0.000913 0.908913 909 0.000313 0.000713 0.303417 0.000104015221
11	111876 132279 23 203565 0.000113 0.909413 5000 1.3e-05 1.3e-05 0.064999999999997 8.4500000000003e-07
12	244155 244680 23 203566 0.000113 0.909413 9094 1.3e-05 0.000713 0.91992200000011 0.00022033108600001
13	488835 9 0 0 0 0 1 0 0 0 0
14	488844 9 0 0 0 0 1 0 0 0 0
15	488853 9 0 0 0 0 1 0 0 0 0
16	488862 9 0 0 0 0 1 0 0 0 0
