file 608572 1331194156                                          
version 2
run WRS1-0-20120308-09:09:12-24505
attr configname WRS1
attr datetime 20120308-09:09:12
attr experiment WRS1
attr inifile omnetpp.ini
attr iterationvars ""
attr iterationvars2 $repetition=0
attr measurement ""
attr network WRS1
attr processid 24505
attr repetition 0
attr replication #0
attr resultdir results
attr runnumber 0
attr seedset 0

vector 0  WRS1.passiveQueue0  queueLength:vector  ETV
attr interpolationmode  sample-hold
attr title  "queue length, vector"
vector 1  WRS1.passiveQueue1  queueLength:vector  ETV
attr interpolationmode  sample-hold
attr title  "queue length, vector"
vector 2  WRS1.passiveQueue2  queueLength:vector  ETV
attr interpolationmode  sample-hold
attr title  "queue length, vector"
vector 3  WRS1.passiveQueue3  queueLength:vector  ETV
attr interpolationmode  sample-hold
attr title  "queue length, vector"
vector 5  WRS1.passiveQueue4  queueLength:vector  ETV
attr interpolationmode  sample-hold
attr title  "queue length, vector"
vector 6  WRS1.passiveQueue5  queueLength:vector  ETV
attr interpolationmode  sample-hold
attr title  "queue length, vector"
vector 7  WRS1.passiveQueue6  queueLength:vector  ETV
attr interpolationmode  sample-hold
attr title  "queue length, vector"
vector 8  WRS1.passiveQueue7  queueLength:vector  ETV
attr interpolationmode  sample-hold
attr title  "queue length, vector"
vector 4  WRS1.sink  lifeTime:vector  ETV
attr interpolationmode  none
attr title  "lifetime of arrived jobs, vector"
attr unit  s
0	1484 47732 0 223597 0 0.998907 2589 0 1 1294 1294
1	49216 46346 0 223687 0 0.99931 2519 0 1 1259 1259
2	95562 45769 0 223754 0 0.999609 2485 0 1 1242 1242
3	141331 46604 0 223216 0 0.997204 2531 0 1 1265 1265
4	187935 238860 23 223825 0.000104 0.999908 9999 1e-06 1.3e-05 0.069991 6.29891e-07
5	426795 47081 0 223553 0 0.998712 2561 0 1 1280 1280
6	473876 44959 0 223731 0 0.999505 2447 0 1 1223 1223
7	518835 44813 0 223798 0 0.999804 2435 0 1 1217 1217
8	563648 44924 0 223821 0 0.999908 2439 0 1 1219 1219
