version 2
run WRS1-0-20120319-10:21:14-11439
attr configname WRS1
attr datetime 20120319-10:21:14
attr experiment WRS1
attr inifile omnetpp.ini
attr iterationvars ""
attr iterationvars2 $repetition=0
attr measurement ""
attr network WRS1
attr processid 11439
attr repetition 0
attr replication #0
attr resultdir results
attr runnumber 0
attr seedset 0

vector 0  WRS1.passiveQueue0  queueLength:vector  ETV
attr interpolationmode  sample-hold
attr title  "queue length, vector"
vector 1  WRS1.passiveQueue1  queueLength:vector  ETV
attr interpolationmode  sample-hold
attr title  "queue length, vector"
vector 2  WRS1.passiveQueue2  queueLength:vector  ETV
attr interpolationmode  sample-hold
attr title  "queue length, vector"
vector 3  WRS1.passiveQueue3  queueLength:vector  ETV
attr interpolationmode  sample-hold
attr title  "queue length, vector"
vector 5  WRS1.passiveQueue4  queueLength:vector  ETV
attr interpolationmode  sample-hold
attr title  "queue length, vector"
vector 6  WRS1.passiveQueue5  queueLength:vector  ETV
attr interpolationmode  sample-hold
attr title  "queue length, vector"
vector 7  WRS1.passiveQueue6  queueLength:vector  ETV
attr interpolationmode  sample-hold
attr title  "queue length, vector"
vector 8  WRS1.passiveQueue7  queueLength:vector  ETV
attr interpolationmode  sample-hold
attr title  "queue length, vector"
vector 4  WRS1.sink  lifeTime:vector  ETV
attr interpolationmode  none
attr title  "lifetime of arrived packets, vector"
attr unit  s
0	0	0	0
0	241	0.0011	1
0	243	0.001105	0
0	555	0.0025	1
0	557	0.002509	0
0	645	0.0029	1
0	647	0.002912	0
0	1361	0.0061	1
0	1363	0.00611	0
0	1585	0.0071	1
0	1587	0.007111	0
0	1606	0.0072	1
0	1608	0.007202	0
0	1719	0.0077	1
0	1721	0.007709	0
0	1763	0.0079	1
0	1765	0.007904	0
0	1830	0.0082	1
0	1832	0.008203	0
0	1943	0.0087	1
0	1945	0.00871	0
0	2188	0.0098	1
0	2190	0.009802	0
0	2458	0.011	1
0	2460	0.011011	0
0	3040	0.0136	1
0	3042	0.013611	0
0	3264	0.0146	1
0	3266	0.014612	0
0	3846	0.0172	1
0	3848	0.017212	0
0	4271	0.0191	1
0	4273	0.01911	0
0	4361	0.0195	1
0	4363	0.019513	0
0	4428	0.0198	1
0	4430	0.019812	0
0	4495	0.0201	1
0	4497	0.020111	0
0	4673	0.0209	1
0	4675	0.020904	0
0	4920	0.022	1
0	4922	0.022009	0
0	5368	0.024	1
0	5370	0.024011	0
0	5435	0.0243	1
0	5437	0.02431	0
0	6174	0.0276	1
0	6176	0.027612	0
0	6308	0.0282	1
0	6310	0.02821	0
0	6398	0.0286	1
0	6400	0.028613	0
0	6980	0.0312	1
0	6982	0.031213	0
0	7024	0.0314	1
0	7026	0.031408	0
0	7047	0.0315	1
0	7049	0.031512	0
0	7629	0.0341	1
0	7631	0.034112	0
0	7696	0.0344	1
0	7698	0.034411	0
0	7941	0.0355	1
0	7943	0.035503	0
0	8031	0.0359	1
0	8033	0.035906	0
0	8412	0.0376	1
0	8414	0.037609	0
0	8523	0.0381	1
0	8525	0.038103	0
0	8636	0.0386	1
0	8638	0.03861	0
0	8657	0.0387	1
0	8659	0.038701	0
0	8793	0.0393	1
0	8795	0.039312	0
0	8837	0.0395	1
0	8839	0.039507	0
0	8971	0.0401	1
0	8973	0.040105	0
0	9239	0.0413	1
0	9241	0.041301	0
0	9285	0.0415	1
0	9287	0.041509	0
0	9396	0.042	1
0	9398	0.042003	0
0	9486	0.0424	1
0	9488	0.042406	0
0	9530	0.0426	1
0	9532	0.042601	0
0	9599	0.0429	1
0	9601	0.042913	0
0	10897	0.0487	1
0	10899	0.048711	0
0	11008	0.0492	1
0	11010	0.049205	0
0	11412	0.051	1
0	11414	0.051012	0
0	11613	0.0519	1
0	11615	0.051909	0
0	11747	0.0525	1
0	11749	0.052507	0
0	11791	0.0527	1
0	11793	0.052702	0
0	11858	0.053	1
0	11860	0.053001	0
0	11971	0.0535	1
0	11973	0.053508	0
0	12352	0.0552	1
0	12354	0.055211	0
0	12396	0.0554	1
0	12398	0.055406	0
0	12509	0.0559	1
0	12511	0.055913	0
0	12888	0.0576	1
0	12890	0.057603	0
0	13158	0.0588	1
0	13160	0.058812	0
0	13313	0.0595	1
0	13315	0.059501	0
0	13918	0.0622	1
0	13920	0.062205	0
0	14232	0.0636	1
0	14234	0.063609	0
0	14389	0.0643	1
0	14391	0.064311	0
0	14523	0.0649	1
0	14525	0.064909	0
0	14680	0.0656	1
0	14682	0.065611	0
0	14837	0.0663	1
0	14839	0.066313	0
0	14881	0.0665	1
0	14883	0.066508	0
0	14904	0.0666	1
0	14906	0.066612	0
0	14925	0.0667	1
0	14927	0.066703	0
0	15149	0.0677	1
0	15151	0.067704	0
0	15396	0.0688	1
0	15398	0.068809	0
0	15553	0.0695	1
0	15555	0.069511	0
0	15597	0.0697	1
0	15599	0.069706	0
0	15641	0.0699	1
0	15643	0.069901	0
0	15687	0.0701	1
0	15689	0.070109	0
0	15731	0.0703	1
0	15733	0.070304	0
0	15932	0.0712	1
0	15934	0.071201	0
0	16223	0.0725	1
0	16225	0.072501	0
0	16359	0.0731	1
0	16361	0.073112	0
0	16380	0.0732	1
0	16382	0.073203	0
0	16403	0.0733	1
0	16405	0.073307	0
0	16560	0.074	1
0	16562	0.074009	0
0	16650	0.0744	1
0	16652	0.074412	0
0	17052	0.0762	1
0	17054	0.076206	0
0	17456	0.078	1
0	17458	0.078013	0
0	17634	0.0788	1
0	17636	0.078806	0
0	17724	0.0792	1
0	17726	0.079209	0
0	17747	0.0793	1
0	17749	0.079313	0
0	17858	0.0798	1
0	17860	0.079807	0
0	18172	0.0812	1
0	18174	0.081211	0
0	18664	0.0834	1
0	18666	0.083408	0
0	18775	0.0839	1
0	18777	0.083902	0
0	18911	0.0845	1
0	18913	0.084513	0
0	18955	0.0847	1
0	18957	0.084708	0
0	19045	0.0851	1
0	19047	0.085111	0
0	19112	0.0854	1
0	19114	0.08541	0
0	19269	0.0861	1
0	19271	0.086112	0
0	19424	0.0868	1
0	19426	0.086801	0
0	19447	0.0869	1
0	19449	0.086905	0
0	19537	0.0873	1
0	19539	0.087308	0
0	19648	0.0878	1
0	19650	0.087802	0
0	19828	0.0886	1
0	19830	0.088608	0
0	19872	0.0888	1
0	19874	0.088803	0
0	19962	0.0892	1
0	19964	0.089206	0
0	20006	0.0894	1
0	20008	0.089401	0
0	20209	0.0903	1
0	20211	0.090311	0
0	20477	0.0915	1
0	20479	0.091507	0
0	20544	0.0918	1
0	20546	0.091806	0
0	20634	0.0922	1
0	20636	0.092209	0
0	20835	0.0931	1
0	20837	0.093106	0
0	20902	0.0934	1
0	20904	0.093405	0
0	20969	0.0937	1
0	20971	0.093704	0
0	21036	0.094	1
0	21038	0.094003	0
0	21103	0.0943	1
0	21105	0.094302	0
0	21170	0.0946	1
0	21172	0.094601	0
0	21283	0.0951	1
0	21285	0.095108	0
0	21417	0.0957	1
0	21419	0.095706	0
0	21999	0.0983	1
0	22001	0.098306	0
0	22403	0.1001	1
0	22405	0.100113	0
0	22491	0.1005	1
0	22493	0.100503	0
0	22537	0.1007	1
0	22539	0.100711	0
0	22648	0.1012	1
0	22650	0.101205	0
0	22694	0.1014	1
0	22696	0.101413	0
0	23029	0.1029	1
0	23031	0.102908	0
0	23207	0.1037	1
0	23209	0.103701	0
0	23678	0.1058	1
0	23680	0.105807	0
0	23745	0.1061	1
0	23747	0.106106	0
0	23768	0.1062	1
0	23770	0.10621	0
0	24461	0.1093	1
0	24463	0.109304	0
0	25022	0.1118	1
0	25024	0.111813	0
0	25156	0.1124	1
0	25158	0.112411	0
0	25244	0.1128	1
0	25246	0.112801	0
0	25468	0.1138	1
0	25470	0.113802	0
0	25916	0.1158	1
0	25918	0.115804	0
0	26050	0.1164	1
0	26052	0.116402	0
0	26230	0.1172	1
0	26232	0.117208	0
0	26297	0.1175	1
0	26299	0.117507	0
0	26544	0.1186	1
0	26546	0.118612	0
0	27103	0.1211	1
0	27105	0.121108	0
0	27170	0.1214	1
0	27172	0.121407	0
0	27237	0.1217	1
0	27239	0.121706	0
0	27350	0.1222	1
0	27352	0.122213	0
0	27572	0.1232	1
0	27574	0.123201	0
0	27775	0.1241	1
0	27777	0.124111	0
0	27842	0.1244	1
0	27844	0.12441	0
0	27863	0.1245	1
0	27865	0.124501	0
0	27932	0.1248	1
0	27934	0.124813	0
0	27976	0.125	1
0	27978	0.125008	0
0	28290	0.1264	1
0	28292	0.126412	0
0	28602	0.1278	1
0	28604	0.127803	0
0	28715	0.1283	1
0	28717	0.12831	0
0	28916	0.1292	1
0	28918	0.129207	0
0	28939	0.1293	1
0	28941	0.129311	0
0	29027	0.1297	1
0	29029	0.129701	0
0	29364	0.1312	1
0	29366	0.131209	0
0	29431	0.1315	1
0	29433	0.131508	0
0	29565	0.1321	1
0	29567	0.132106	0
0	29678	0.1326	1
0	29680	0.132613	0
0	29879	0.1335	1
0	29881	0.13351	0
0	30013	0.1341	1
0	30015	0.134108	0
0	30170	0.1348	1
0	30172	0.13481	0
0	30415	0.1359	1
0	30417	0.135902	0
0	30505	0.1363	1
0	30507	0.136305	0
0	30930	0.1382	1
0	30932	0.138203	0
0	31267	0.1397	1
0	31269	0.139711	0
0	31491	0.1407	1
0	31493	0.140712	0
0	31512	0.1408	1
0	31514	0.140803	0
0	31535	0.1409	1
0	31537	0.140907	0
0	31646	0.1414	1
0	31648	0.141401	0
0	31849	0.1423	1
0	31851	0.142311	0
0	32475	0.1451	1
0	32477	0.145106	0
0	32542	0.1454	1
0	32544	0.145405	0
0	32565	0.1455	1
0	32567	0.145509	0
0	32766	0.1464	1
0	32768	0.146406	0
0	33013	0.1475	1
0	33015	0.147511	0
0	33191	0.1483	1
0	33193	0.148304	0
0	33237	0.1485	1
0	33239	0.148512	0
0	33595	0.1501	1
0	33597	0.150111	0
0	33752	0.1508	1
0	33754	0.150813	0
0	34020	0.152	1
0	34022	0.152009	0
0	34043	0.1521	1
0	34045	0.152113	0
0	34244	0.153	1
0	34246	0.15301	0
0	34334	0.1534	1
0	34336	0.153413	0
0	34602	0.1546	1
0	34604	0.154609	0
0	34646	0.1548	1
0	34648	0.154804	0
0	34847	0.1557	1
0	34849	0.155701	0
0	35251	0.1575	1
0	35253	0.157508	0
0	35341	0.1579	1
0	35343	0.157911	0
0	35498	0.1586	1
0	35500	0.158613	0
0	35565	0.1589	1
0	35567	0.158912	0
0	35900	0.1604	1
0	35902	0.160407	0
0	36080	0.1612	1
0	36082	0.161213	0
0	36124	0.1614	1
0	36126	0.161408	0
0	36214	0.1618	1
0	36216	0.161811	0
0	36392	0.1626	1
0	36394	0.162604	0
0	36438	0.1628	1
0	36440	0.162812	0
0	36459	0.1629	1
0	36461	0.162903	0
0	36840	0.1646	1
0	36842	0.164606	0
0	36907	0.1649	1
0	36909	0.164905	0
0	37087	0.1657	1
0	37089	0.165711	0
0	37154	0.166	1
0	37156	0.16601	0
0	37175	0.1661	1
0	37177	0.166101	0
0	37355	0.1669	1
0	37357	0.166907	0
0	37489	0.1675	1
0	37491	0.167505	0
0	37556	0.1678	1
0	37558	0.167804	0
0	37826	0.169	1
0	37828	0.169013	0
0	38362	0.1714	1
0	38364	0.171405	0
0	38563	0.1723	1
0	38565	0.172302	0
0	38586	0.1724	1
0	38588	0.172406	0
0	38720	0.173	1
0	38722	0.173004	0
0	39436	0.1762	1
0	39438	0.176202	0
0	39593	0.1769	1
0	39595	0.176904	0
0	39616	0.177	1
0	39618	0.177008	0
0	39817	0.1779	1
0	39819	0.177905	0
0	39884	0.1782	1
0	39886	0.178204	0
0	40399	0.1805	1
0	40401	0.180505	0
0	40937	0.1829	1
0	40939	0.18291	0
0	41272	0.1844	1
0	41274	0.184405	0
0	41295	0.1845	1
0	41297	0.184509	0
0	41339	0.1847	1
0	41341	0.184704	0
0	41743	0.1865	1
0	41745	0.186511	0
0	41787	0.1867	1
0	41789	0.186706	0
0	41988	0.1876	1
0	41990	0.187603	0
0	42011	0.1877	1
0	42013	0.187707	0
0	42145	0.1883	1
0	42147	0.188305	0
0	42325	0.1891	1
0	42327	0.189111	0
0	42346	0.1892	1
0	42348	0.189202	0
0	42369	0.1893	1
0	42371	0.189306	0
0	42482	0.1898	1
0	42484	0.189813	0
0	42683	0.1907	1
0	42685	0.19071	0
0	42727	0.1909	1
0	42729	0.190905	0
0	43868	0.196	1
0	43870	0.196001	0
0	43891	0.1961	1
0	43893	0.196105	0
0	44272	0.1978	1
0	44274	0.197808	0
0	44519	0.1989	1
0	44521	0.198913	0
0	44810	0.2002	1
0	44812	0.200213	0
0	45032	0.2012	1
0	45034	0.201201	0
0	45189	0.2019	1
0	45191	0.201903	0
0	45413	0.2029	1
0	45415	0.202904	0
0	45750	0.2044	1
0	45752	0.204412	0
0	45838	0.2048	1
0	45840	0.204802	0
0	45884	0.205	1
0	45886	0.20501	0
0	45905	0.2051	1
0	45907	0.205101	0
0	46332	0.207	1
0	46334	0.207012	0
0	46353	0.2071	1
0	46355	0.207103	0
0	46466	0.2076	1
0	46468	0.20761	0
0	46556	0.208	1
0	46558	0.208013	0
0	47115	0.2105	1
0	47117	0.210509	0
0	47584	0.2126	1
0	47586	0.212602	0
0	47965	0.2143	1
0	47967	0.214305	0
0	48011	0.2145	1
0	48013	0.214513	0
0	48122	0.215	1
0	48124	0.215007	0
0	48503	0.2167	1
0	48505	0.21671	0
0	48547	0.2169	1
0	48549	0.216905	0
0	48727	0.2177	1
0	48729	0.217711	0
0	48794	0.218	1
0	48796	0.21801	0
0	48884	0.2184	1
0	48886	0.218413	0
0	49018	0.219	1
0	49020	0.219011	0
0	49309	0.2203	1
0	49311	0.220311	0
0	49734	0.2222	1
0	49736	0.222209	0
0	49778	0.2224	1
0	49780	0.222404	0
0	49868	0.2228	1
0	49870	0.222807	0
0	50226	0.2244	1
0	50228	0.224406	0
0	50339	0.2249	1
0	50341	0.224913	0
0	50427	0.2253	1
0	50429	0.225303	0
0	50607	0.2261	1
0	50609	0.226109	0
0	50785	0.2269	1
0	50787	0.226902	0
0	50875	0.2273	1
0	50877	0.227305	0
0	50965	0.2277	1
0	50967	0.227708	0
0	50988	0.2278	1
0	50990	0.227812	0
0	51099	0.2283	1
0	51101	0.228306	0
0	51166	0.2286	1
0	51168	0.228605	0
0	51681	0.2309	1
0	51683	0.230906	0
0	51725	0.2311	1
0	51727	0.231101	0
0	51928	0.232	1
0	51930	0.232011	0
0	51949	0.2321	1
0	51951	0.232102	0
0	52129	0.2329	1
0	52131	0.232908	0
0	52196	0.2332	1
0	52198	0.233207	0
0	52397	0.2341	1
0	52399	0.234104	0
0	52531	0.2347	1
0	52533	0.234702	0
0	52667	0.2353	1
0	52669	0.235313	0
0	52711	0.2355	1
0	52713	0.235508	0
0	52734	0.2356	1
0	52736	0.235612	0
0	53092	0.2372	1
0	53094	0.237211	0
0	53136	0.2374	1
0	53138	0.237406	0
0	53293	0.2381	1
0	53295	0.238108	0
0	53695	0.2399	1
0	53697	0.239902	0
0	53762	0.2402	1
0	53764	0.240201	0
0	53852	0.2406	1
0	53854	0.240604	0
0	53875	0.2407	1
0	53877	0.240708	0
0	54009	0.2413	1
0	54011	0.241306	0
0	54122	0.2418	1
0	54124	0.241813	0
0	54256	0.2424	1
0	54258	0.242411	0
0	54524	0.2436	1
0	54526	0.243607	0
0	54568	0.2438	1
0	54570	0.243802	0
0	54748	0.2446	1
0	54750	0.244608	0
0	54771	0.2447	1
0	54773	0.244712	0
0	54949	0.2455	1
0	54951	0.245505	0
0	55464	0.2478	1
0	55466	0.247806	0
0	55665	0.2487	1
0	55667	0.248703	0
0	55799	0.2493	1
0	55801	0.249301	0
0	55889	0.2497	1
0	55891	0.249704	0
0	55956	0.25	1
0	55958	0.250003	0
0	56404	0.252	1
0	56406	0.252005	0
0	56471	0.2523	1
0	56473	0.252304	0
0	56942	0.2544	1
0	56944	0.25441	0
0	57457	0.2567	1
0	57459	0.256711	0
0	57545	0.2571	1
0	57547	0.257101	0
0	57658	0.2576	1
0	57660	0.257608	0
0	58217	0.2601	1
0	58219	0.260104	0
0	58307	0.2605	1
0	58309	0.260507	0
0	58330	0.2606	1
0	58332	0.260611	0
0	58487	0.2613	1
0	58489	0.261313	0
0	58778	0.2626	1
0	58780	0.262613	0
0	58822	0.2628	1
0	58824	0.262808	0
0	58845	0.2629	1
0	58847	0.262912	0
0	59291	0.2649	1
0	59293	0.264901	0
0	59314	0.265	1
0	59316	0.265005	0
0	59448	0.2656	1
0	59450	0.265603	0
0	59515	0.2659	1
0	59517	0.265902	0
0	59672	0.2666	1
0	59674	0.266604	0
0	59785	0.2671	1
0	59787	0.267111	0
0	59942	0.2678	1
0	59944	0.267813	0
0	59986	0.268	1
0	59988	0.268008	0
0	60143	0.2687	1
0	60145	0.26871	0
0	60277	0.2693	1
0	60279	0.269308	0
0	60455	0.2701	1
0	60457	0.270101	0
0	60545	0.2705	1
0	60547	0.270504	0
0	60725	0.2713	1
0	60727	0.27131	0
0	60792	0.2716	1
0	60794	0.271609	0
0	60949	0.2723	1
0	60951	0.272311	0
0	60993	0.2725	1
0	60995	0.272506	0
0	61106	0.273	1
0	61108	0.273013	0
0	61127	0.2731	1
0	61129	0.273104	0
0	61217	0.2735	1
0	61219	0.273507	0
0	61240	0.2736	1
0	61242	0.273611	0
0	61307	0.2739	1
0	61309	0.27391	0
0	61531	0.2749	1
0	61533	0.274911	0
0	61688	0.2756	1
0	61690	0.275613	0
0	61709	0.2757	1
0	61711	0.275704	0
0	61755	0.2759	1
0	61757	0.275912	0
0	62358	0.2786	1
0	62360	0.278603	0
0	62649	0.2799	1
0	62651	0.279903	0
0	62739	0.2803	1
0	62741	0.280306	0
0	62873	0.2809	1
0	62875	0.280904	0
0	63277	0.2827	1
0	63279	0.282711	0
0	63344	0.283	1
0	63346	0.28301	0
0	63612	0.2842	1
0	63614	0.284206	0
0	63679	0.2845	1
0	63681	0.284505	0
0	63947	0.2857	1
0	63949	0.285701	0
0	64083	0.2863	1
0	64085	0.286312	0
0	64307	0.2873	1
0	64309	0.287313	0
0	64485	0.2881	1
0	64487	0.288106	0
0	64598	0.2886	1
0	64600	0.288613	0
0	64665	0.2889	1
0	64667	0.288912	0
0	64799	0.2895	1
0	64801	0.28951	0
0	64933	0.2901	1
0	64935	0.290108	0
0	64956	0.2902	1
0	64958	0.290212	0
0	65111	0.2909	1
0	65113	0.290901	0
0	65605	0.2931	1
0	65607	0.293111	0
0	65873	0.2943	1
0	65875	0.294307	0
0	66030	0.295	1
0	66032	0.295009	0
0	66097	0.2953	1
0	66099	0.295308	0
0	66499	0.2971	1
0	66501	0.297102	0
0	66926	0.299	1
0	66928	0.299013	0
0	67081	0.2997	1
0	67083	0.299702	0
0	67238	0.3004	1
0	67240	0.300404	0
0	67462	0.3014	1
0	67464	0.301405	0
0	67508	0.3016	1
0	67510	0.301613	0
0	67575	0.3019	1
0	67577	0.301912	0
0	67686	0.3024	1
0	67688	0.302406	0
0	67776	0.3028	1
0	67778	0.302809	0
0	67799	0.3029	1
0	67801	0.302913	0
0	68358	0.3054	1
0	68360	0.305409	0
0	68559	0.3063	1
0	68561	0.306306	0
0	69074	0.3086	1
0	69076	0.308607	0
0	69164	0.309	1
0	69166	0.30901	0
0	69275	0.3095	1
0	69277	0.309504	0
0	69409	0.3101	1
0	69411	0.310102	0
0	69903	0.3123	1
0	69905	0.312312	0
0	70037	0.3129	1
0	70039	0.31291	0
0	70506	0.315	1
0	70508	0.315003	0
0	70663	0.3157	1
0	70665	0.315705	0
0	70910	0.3168	1
0	70912	0.31681	0
0	71044	0.3174	1
0	71046	0.317408	0
0	71201	0.3181	1
0	71203	0.31811	0
0	71222	0.3182	1
0	71224	0.318201	0
0	71245	0.3183	1
0	71247	0.318305	0
0	71312	0.3186	1
0	71314	0.318604	0
0	71492	0.3194	1
0	71494	0.31941	0
0	71626	0.32	1
0	71628	0.320008	0
0	71760	0.3206	1
0	71762	0.320606	0
0	71961	0.3215	1
0	71963	0.321503	0
0	71984	0.3216	1
0	71986	0.321607	0
0	72028	0.3218	1
0	72030	0.321802	0
0	72610	0.3244	1
0	72612	0.324402	0
0	72901	0.3257	1
0	72903	0.325702	0
0	73171	0.3269	1
0	73173	0.326911	0
0	73462	0.3282	1
0	73464	0.328211	0
0	73573	0.3287	1
0	73575	0.328705	0
0	73596	0.3288	1
0	73598	0.328809	0
0	74065	0.3309	1
0	74067	0.330902	0
0	74268	0.3318	1
0	74270	0.331812	0
0	74603	0.3333	1
0	74605	0.333307	0
0	74850	0.3344	1
0	74852	0.334412	0
0	75162	0.3358	1
0	75164	0.335803	0
0	75296	0.3364	1
0	75298	0.336401	0
0	75432	0.337	1
0	75434	0.337012	0
0	75633	0.3379	1
0	75635	0.337909	0
0	75723	0.3383	1
0	75725	0.338312	0
0	75857	0.3389	1
0	75859	0.33891	0
0	75947	0.3393	1
0	75949	0.339313	0
0	75991	0.3395	1
0	75993	0.339508	0
0	76393	0.3413	1
0	76395	0.341302	0
0	76416	0.3414	1
0	76418	0.341406	0
0	76573	0.3421	1
0	76575	0.342108	0
0	76617	0.3423	1
0	76619	0.342303	0
0	76663	0.3425	1
0	76665	0.342511	0
0	76751	0.3429	1
0	76753	0.342901	0
0	77088	0.3444	1
0	77090	0.344409	0
0	77199	0.3449	1
0	77201	0.344903	0
0	77379	0.3457	1
0	77381	0.345709	0
0	77781	0.3475	1
0	77783	0.347503	0
0	77938	0.3482	1
0	77940	0.348205	0
0	77961	0.3483	1
0	77963	0.348309	0
0	78005	0.3485	1
0	78007	0.348504	0
0	78296	0.3498	1
0	78298	0.349804	0
0	78363	0.3501	1
0	78365	0.350103	0
0	78497	0.3507	1
0	78499	0.350701	0
0	78857	0.3523	1
0	78859	0.352313	0
0	79370	0.3546	1
0	79372	0.354601	0
0	79393	0.3547	1
0	79395	0.354705	0
0	79617	0.3557	1
0	79619	0.355706	0
0	79885	0.3569	1
0	79887	0.356902	0
0	80176	0.3582	1
0	80178	0.358202	0
0	80199	0.3583	1
0	80201	0.358306	0
0	80312	0.3588	1
0	80314	0.358813	0
0	80603	0.3601	1
0	80605	0.360113	0
0	80624	0.3602	1
0	80626	0.360204	0
0	81162	0.3626	1
0	81164	0.362609	0
0	81206	0.3628	1
0	81208	0.362804	0
0	81677	0.3649	1
0	81679	0.36491	0
0	81721	0.3651	1
0	81723	0.365105	0
0	81811	0.3655	1
0	81813	0.365508	0
0	81834	0.3656	1
0	81836	0.365612	0
0	82192	0.3672	1
0	82194	0.367211	0
0	82259	0.3675	1
0	82261	0.36751	0
0	82527	0.3687	1
0	82529	0.368706	0
0	82550	0.3688	1
0	82552	0.36881	0
0	82774	0.3698	1
0	82776	0.369811	0
0	82952	0.3706	1
0	82954	0.370604	0
0	83019	0.3709	1
0	83021	0.370903	0
0	83065	0.3711	1
0	83067	0.371111	0
0	83243	0.3719	1
0	83245	0.371904	0
0	83557	0.3733	1
0	83559	0.373308	0
0	83825	0.3745	1
0	83827	0.374504	0
0	84049	0.3755	1
0	84051	0.375505	0
0	84229	0.3763	1
0	84231	0.376311	0
0	84296	0.3766	1
0	84298	0.37661	0
0	84317	0.3767	1
0	84319	0.376701	0
0	84407	0.3771	1
0	84409	0.377104	0
0	84631	0.3781	1
0	84633	0.378105	0
0	84744	0.3786	1
0	84746	0.378612	0
0	85056	0.38	1
0	85058	0.380003	0
0	85169	0.3805	1
0	85171	0.38051	0
0	85326	0.3812	1
0	85328	0.381212	0
0	85841	0.3835	1
0	85843	0.383513	0
0	85885	0.3837	1
0	85887	0.383708	0
0	85908	0.3838	1
0	85910	0.383812	0
0	85996	0.3842	1
0	85998	0.384202	0
0	86243	0.3853	1
0	86245	0.385307	0
0	86310	0.3856	1
0	86312	0.385606	0
0	86423	0.3861	1
0	86425	0.386113	0
0	86444	0.3862	1
0	86446	0.386204	0
0	86691	0.3873	1
0	86693	0.387309	0
0	87026	0.3888	1
0	87028	0.388804	0
0	87093	0.3891	1
0	87095	0.389103	0
0	87451	0.3907	1
0	87453	0.390702	0
0	87742	0.392	1
0	87744	0.392002	0
0	87832	0.3924	1
0	87834	0.392405	0
0	87855	0.3925	1
0	87857	0.392509	0
0	87945	0.3929	1
0	87947	0.392912	0
0	87989	0.3931	1
0	87991	0.393107	0
0	88280	0.3944	1
0	88282	0.394407	0
0	88728	0.3964	1
0	88730	0.396409	0
0	89287	0.3989	1
0	89289	0.398905	0
0	89511	0.3999	1
0	89513	0.399906	0
0	89601	0.4003	1
0	89603	0.400309	0
0	89915	0.4017	1
0	89917	0.401713	0
0	90160	0.4028	1
0	90162	0.402805	0
0	90183	0.4029	1
0	90185	0.402909	0
0	90428	0.404	1
0	90430	0.404001	0
0	90541	0.4045	1
0	90543	0.404508	0
0	90564	0.4046	1
0	90566	0.404612	0
0	90788	0.4056	1
0	90790	0.405613	0
0	91324	0.408	1
0	91326	0.408005	0
0	91347	0.4081	1
0	91349	0.408109	0
0	91862	0.4104	1
0	91864	0.41041	0
0	92555	0.4135	1
0	92557	0.413504	0
0	92622	0.4138	1
0	92624	0.413803	0
0	92892	0.415	1
0	92894	0.415012	0
0	92913	0.4151	1
0	92915	0.415103	0
0	93026	0.4156	1
0	93028	0.41561	0
0	93809	0.4191	1
0	93811	0.419107	0
0	93832	0.4192	1
0	93834	0.419211	0
0	93899	0.4195	1
0	93901	0.41951	0
0	94368	0.4216	1
0	94370	0.421603	0
0	94414	0.4218	1
0	94416	0.421811	0
0	94571	0.4225	1
0	94573	0.422513	0
0	94705	0.4231	1
0	94707	0.423111	0
0	94726	0.4232	1
0	94728	0.423202	0
0	94839	0.4237	1
0	94841	0.423709	0
0	94883	0.4239	1
0	94885	0.423904	0
0	95287	0.4257	1
0	95289	0.425711	0
0	95421	0.4263	1
0	95423	0.426309	0
0	95444	0.4264	1
0	95446	0.426413	0
0	95465	0.4265	1
0	95467	0.426504	0
0	95488	0.4266	1
0	95490	0.426608	0
0	95532	0.4268	1
0	95534	0.426803	0
0	95712	0.4276	1
0	95714	0.427609	0
0	95913	0.4285	1
0	95915	0.428506	0
0	96003	0.4289	1
0	96005	0.428909	0
0	96047	0.4291	1
0	96049	0.429104	0
0	96070	0.4292	1
0	96072	0.429208	0
0	96294	0.4302	1
0	96296	0.430209	0
0	96405	0.4307	1
0	96407	0.430703	0
0	96675	0.4319	1
0	96677	0.431912	0
0	96920	0.433	1
0	96922	0.433004	0
0	97054	0.4336	1
0	97056	0.433602	0
0	97100	0.4338	1
0	97102	0.43381	0
0	97234	0.4344	1
0	97236	0.434408	0
0	97502	0.4356	1
0	97504	0.435604	0
0	97659	0.4363	1
0	97661	0.436306	0
0	97682	0.4364	1
0	97684	0.43641	0
0	98130	0.4384	1
0	98132	0.438412	0
0	98488	0.44	1
0	98490	0.440011	0
0	98509	0.4401	1
0	98511	0.440102	0
0	98712	0.441	1
0	98714	0.441012	0
0	98756	0.4412	1
0	98758	0.441207	0
0	98957	0.4421	1
0	98959	0.442104	0
0	99047	0.4425	1
0	99049	0.442507	0
0	99181	0.4431	1
0	99183	0.443105	0
0	99204	0.4432	1
0	99206	0.443209	0
0	99248	0.4434	1
0	99250	0.443404	0
0	99539	0.4447	1
0	99541	0.444704	0
0	99585	0.4449	1
0	99587	0.444912	0
0	99673	0.4453	1
0	99675	0.445302	0
0	99696	0.4454	1
0	99698	0.445406	0
0	99876	0.4462	1
0	99878	0.446212	0
0	100211	0.4477	1
0	100213	0.447707	0
0	100234	0.4478	1
0	100236	0.447811	0
0	100368	0.4484	1
0	100370	0.448409	0
0	100412	0.4486	1
0	100414	0.448604	0
0	100636	0.4496	1
0	100638	0.449605	0
0	100682	0.4498	1
0	100684	0.449813	0
0	100749	0.4501	1
0	100751	0.450112	0
0	100837	0.4505	1
0	100839	0.450502	0
0	100994	0.4512	1
0	100996	0.451204	0
0	101040	0.4514	1
0	101042	0.451412	0
0	101285	0.4525	1
0	101287	0.452504	0
0	101710	0.4544	1
0	101712	0.454402	0
0	101756	0.4546	1
0	101758	0.45461	0
0	101867	0.4551	1
0	101869	0.455104	0
0	102024	0.4558	1
0	102026	0.455806	0
0	102405	0.4575	1
0	102407	0.457509	0
0	102562	0.4582	1
0	102564	0.458211	0
0	102673	0.4587	1
0	102675	0.458705	0
0	102740	0.459	1
0	102742	0.459004	0
0	102897	0.4597	1
0	102899	0.459706	0
0	102941	0.4599	1
0	102943	0.459901	0
0	103054	0.4604	1
0	103056	0.460408	0
0	103232	0.4612	1
0	103234	0.461201	0
0	103345	0.4617	1
0	103347	0.461708	0
0	103523	0.4625	1
0	103525	0.462501	0
0	103569	0.4627	1
0	103571	0.462709	0
0	103592	0.4628	1
0	103594	0.462813	0
0	103770	0.4636	1
0	103772	0.463606	0
0	103860	0.464	1
0	103862	0.464009	0
0	104038	0.4648	1
0	104040	0.464802	0
0	104084	0.465	1
0	104086	0.46501	0
0	104195	0.4655	1
0	104197	0.465504	0
0	104285	0.4659	1
0	104287	0.465907	0
0	104396	0.4664	1
0	104398	0.466401	0
0	104666	0.4676	1
0	104668	0.46761	0
0	104867	0.4685	1
0	104869	0.468507	0
0	104890	0.4686	1
0	104892	0.468611	0
0	104911	0.4687	1
0	104913	0.468702	0
0	104934	0.4688	1
0	104936	0.468806	0
0	105091	0.4695	1
0	105093	0.469508	0
0	105158	0.4698	1
0	105160	0.469807	0
0	105539	0.4715	1
0	105541	0.47151	0
0	105606	0.4718	1
0	105608	0.471809	0
0	105763	0.4725	1
0	105765	0.472511	0
0	105784	0.4726	1
0	105786	0.472602	0
0	105964	0.4734	1
0	105966	0.473408	0
0	106008	0.4736	1
0	106010	0.473603	0
0	106546	0.476	1
0	106548	0.476008	0
0	106904	0.4776	1
0	106906	0.477607	0
0	106948	0.4778	1
0	106950	0.477802	0
0	106994	0.478	1
0	106996	0.47801	0
0	107151	0.4787	1
0	107153	0.478712	0
0	107329	0.4795	1
0	107331	0.479505	0
0	107352	0.4796	1
0	107354	0.479609	0
0	107442	0.48	1
0	107444	0.480012	0
0	107643	0.4809	1
0	107645	0.480909	0
0	107821	0.4817	1
0	107823	0.481702	0
0	107844	0.4818	1
0	107846	0.481806	0
0	107911	0.4821	1
0	107913	0.482105	0
0	107957	0.4823	1
0	107959	0.482313	0
0	108091	0.4829	1
0	108093	0.482911	0
0	108112	0.483	1
0	108114	0.483002	0
0	108269	0.4837	1
0	108271	0.483704	0
0	108382	0.4842	1
0	108384	0.484211	0
0	108694	0.4856	1
0	108696	0.485602	0
0	108918	0.4866	1
0	108920	0.486603	0
0	109791	0.4905	1
0	109793	0.490503	0
0	110216	0.4924	1
0	110218	0.492401	0
0	110306	0.4928	1
0	110308	0.492804	0
0	110352	0.493	1
0	110354	0.493012	0
0	110396	0.4932	1
0	110398	0.493207	0
0	110507	0.4937	1
0	110509	0.493701	0
0	110821	0.4951	1
0	110823	0.495105	0
0	111089	0.4963	1
0	111091	0.496301	0
0	111292	0.4972	1
0	111294	0.497211	0
0	111359	0.4975	1
0	111361	0.49751	0
0	111583	0.4985	1
0	111585	0.498511	0
0	111941	0.5001	1
0	111943	0.50011	0
0	112075	0.5007	1
0	112077	0.500708	0
0	112165	0.5011	1
0	112167	0.501111	0
0	112343	0.5019	1
0	112345	0.501904	0
0	112433	0.5023	1
0	112435	0.502307	0
0	112477	0.5025	1
0	112479	0.502502	0
0	112500	0.5026	1
0	112502	0.502606	0
0	112523	0.5027	1
0	112525	0.50271	0
0	112791	0.5039	1
0	112793	0.503906	0
0	112814	0.504	1
0	112816	0.50401	0
0	112881	0.5043	1
0	112883	0.504309	0
0	112948	0.5046	1
0	112950	0.504608	0
0	113015	0.5049	1
0	113017	0.504907	0
0	113059	0.5051	1
0	113061	0.505102	0
0	113306	0.5062	1
0	113308	0.506207	0
0	113417	0.5067	1
0	113419	0.506701	0
0	113620	0.5076	1
0	113622	0.507611	0
0	113777	0.5083	1
0	113779	0.508313	0
0	114045	0.5095	1
0	114047	0.509509	0
0	114112	0.5098	1
0	114114	0.509808	0
0	114313	0.5107	1
0	114315	0.510705	0
0	114336	0.5108	1
0	114338	0.510809	0
0	114380	0.511	1
0	114382	0.511004	0
0	114671	0.5123	1
0	114673	0.512304	0
0	114784	0.5128	1
0	114786	0.512811	0
0	114805	0.5129	1
0	114807	0.512902	0
0	115008	0.5138	1
0	115010	0.513812	0
0	115163	0.5145	1
0	115165	0.514501	0
0	115835	0.5175	1
0	115837	0.517504	0
0	115881	0.5177	1
0	115883	0.517712	0
0	116172	0.519	1
0	116174	0.519012	0
0	116283	0.5195	1
0	116285	0.519506	0
0	116463	0.5203	1
0	116465	0.520312	0
0	116574	0.5208	1
0	116576	0.520806	0
0	116888	0.5222	1
0	116890	0.52221	0
0	117223	0.5237	1
0	117225	0.523705	0
0	117269	0.5239	1
0	117271	0.523913	0
0	117782	0.5262	1
0	117784	0.526201	0
0	118163	0.5279	1
0	118165	0.527904	0
0	118454	0.5292	1
0	118456	0.529204	0
0	118588	0.5298	1
0	118590	0.529802	0
0	118768	0.5306	1
0	118770	0.530608	0
0	119082	0.532	1
0	119084	0.532012	0
0	119708	0.5348	1
0	119710	0.534807	0
0	119999	0.5361	1
0	120001	0.536107	0
0	120604	0.5388	1
0	120606	0.538811	0
0	120648	0.539	1
0	120650	0.539006	0
0	120692	0.5392	1
0	120694	0.539201	0
0	121207	0.5415	1
0	121209	0.541502	0
0	121364	0.5422	1
0	121366	0.542204	0
0	121588	0.5432	1
0	121590	0.543205	0
0	121789	0.5441	1
0	121791	0.544102	0
0	121879	0.5445	1
0	121881	0.544505	0
0	121925	0.5447	1
0	121927	0.544713	0
0	121946	0.5448	1
0	121948	0.544804	0
0	122147	0.5457	1
0	122149	0.545701	0
0	122438	0.547	1
0	122440	0.547001	0
0	122865	0.5489	1
0	122867	0.548912	0
0	122932	0.5492	1
0	122934	0.549211	0
0	123177	0.5503	1
0	123179	0.550303	0
0	123334	0.551	1
0	123336	0.551005	0
0	123380	0.5512	1
0	123382	0.551213	0
0	123558	0.552	1
0	123560	0.552006	0
0	123671	0.5525	1
0	123673	0.552513	0
0	123692	0.5526	1
0	123694	0.552604	0
0	124253	0.5551	1
0	124255	0.555113	0
0	124341	0.5555	1
0	124343	0.555503	0
0	124498	0.5562	1
0	124500	0.556205	0
0	124722	0.5572	1
0	124724	0.557206	0
0	124879	0.5579	1
0	124881	0.557908	0
0	125193	0.5593	1
0	125195	0.559312	0
0	125729	0.5617	1
0	125731	0.561704	0
0	125863	0.5623	1
0	125865	0.562302	0
0	125930	0.5626	1
0	125932	0.562601	0
0	125976	0.5628	1
0	125978	0.562809	0
0	125999	0.5629	1
0	126001	0.562913	0
0	126267	0.5641	1
0	126269	0.564109	0
0	126424	0.5648	1
0	126426	0.564811	0
0	126512	0.5652	1
0	126514	0.565201	0
0	126872	0.5668	1
0	126874	0.566813	0
0	126916	0.567	1
0	126918	0.567008	0
0	127027	0.5675	1
0	127029	0.567502	0
0	127094	0.5678	1
0	127096	0.567801	0
0	127140	0.568	1
0	127142	0.568009	0
0	127565	0.5699	1
0	127567	0.569907	0
0	128461	0.5739	1
0	128463	0.573911	0
0	128976	0.5762	1
0	128978	0.576212	0
0	129064	0.5766	1
0	129066	0.576602	0
0	129131	0.5769	1
0	129133	0.576901	0
0	129154	0.577	1
0	129156	0.577005	0
0	129244	0.5774	1
0	129246	0.577408	0
0	129311	0.5777	1
0	129313	0.577707	0
0	129401	0.5781	1
0	129403	0.57811	0
0	129445	0.5783	1
0	129447	0.578305	0
0	129535	0.5787	1
0	129537	0.578708	0
0	129579	0.5789	1
0	129581	0.578903	0
0	129625	0.5791	1
0	129627	0.579111	0
0	129782	0.5798	1
0	129784	0.579813	0
0	129849	0.5801	1
0	129851	0.580112	0
0	130228	0.5818	1
0	130230	0.581802	0
0	130274	0.582	1
0	130276	0.58201	0
0	130452	0.5828	1
0	130454	0.582803	0
0	130475	0.5829	1
0	130477	0.582907	0
0	130655	0.5837	1
0	130657	0.583713	0
0	130900	0.5848	1
0	130902	0.584805	0
0	130923	0.5849	1
0	130925	0.584909	0
0	130990	0.5852	1
0	130992	0.585208	0
0	131168	0.586	1
0	131170	0.586001	0
0	131258	0.5864	1
0	131260	0.586404	0
0	131528	0.5876	1
0	131530	0.587613	0
0	131662	0.5882	1
0	131664	0.588211	0
0	131683	0.5883	1
0	131685	0.588302	0
0	131729	0.5885	1
0	131731	0.58851	0
0	131796	0.5888	1
0	131798	0.588809	0
0	131863	0.5891	1
0	131865	0.589108	0
0	131953	0.5895	1
0	131955	0.589511	0
0	132041	0.5899	1
0	132043	0.589901	0
0	132064	0.59	1
0	132066	0.590005	0
0	132154	0.5904	1
0	132156	0.590408	0
0	132177	0.5905	1
0	132179	0.590512	0
0	132244	0.5908	1
0	132246	0.590811	0
0	132602	0.5924	1
0	132604	0.59241	0
0	132623	0.5925	1
0	132625	0.592501	0
0	132646	0.5926	1
0	132648	0.592605	0
0	132669	0.5927	1
0	132671	0.592709	0
0	132893	0.5937	1
0	132895	0.59371	0
0	132914	0.5938	1
0	132916	0.593801	0
0	132960	0.594	1
0	132962	0.594009	0
0	133452	0.5962	1
0	133454	0.596206	0
0	133542	0.5966	1
0	133544	0.596609	0
0	133676	0.5972	1
0	133678	0.597207	0
0	133990	0.5986	1
0	133992	0.598611	0
0	134258	0.5998	1
0	134260	0.599807	0
0	134796	0.6022	1
0	134798	0.602212	0
0	134817	0.6023	1
0	134819	0.602303	0
0	134974	0.603	1
0	134976	0.603005	0
0	135108	0.6036	1
0	135110	0.603603	0
0	135221	0.6041	1
0	135223	0.60411	0
0	135332	0.6046	1
0	135334	0.604604	0
0	135422	0.605	1
0	135424	0.605007	0
0	135736	0.6064	1
0	135738	0.606411	0
0	135893	0.6071	1
0	135895	0.607113	0
0	136184	0.6084	1
0	136186	0.608413	0
0	136988	0.612	1
0	136990	0.612001	0
0	137191	0.6129	1
0	137193	0.612911	0
0	137235	0.6131	1
0	137237	0.613106	0
0	137549	0.6145	1
0	137551	0.61451	0
0	137593	0.6147	1
0	137595	0.614705	0
0	137639	0.6149	1
0	137641	0.614913	0
0	137727	0.6153	1
0	137729	0.615303	0
0	137750	0.6154	1
0	137752	0.615407	0
0	137930	0.6162	1
0	137932	0.616213	0
0	138108	0.617	1
0	138110	0.617006	0
0	138131	0.6171	1
0	138133	0.61711	0
0	138242	0.6176	1
0	138244	0.617604	0
0	138489	0.6187	1
0	138491	0.618709	0
0	139115	0.6215	1
0	139117	0.621504	0
0	139161	0.6217	1
0	139163	0.621712	0
0	139429	0.6229	1
0	139431	0.622908	0