file 577817 1332148878                                          
version 2
run WRS1-0-20120319-10:21:14-11439
attr configname WRS1
attr datetime 20120319-10:21:14
attr experiment WRS1
attr inifile omnetpp.ini
attr iterationvars ""
attr iterationvars2 $repetition=0
attr measurement ""
attr network WRS1
attr processid 11439
attr repetition 0
attr replication #0
attr resultdir results
attr runnumber 0
attr seedset 0

vector 0  WRS1.passiveQueue0  queueLength:vector  ETV
attr interpolationmode  sample-hold
attr title  "queue length, vector"
vector 1  WRS1.passiveQueue1  queueLength:vector  ETV
attr interpolationmode  sample-hold
attr title  "queue length, vector"
vector 2  WRS1.passiveQueue2  queueLength:vector  ETV
attr interpolationmode  sample-hold
attr title  "queue length, vector"
vector 3  WRS1.passiveQueue3  queueLength:vector  ETV
attr interpolationmode  sample-hold
attr title  "queue length, vector"
vector 5  WRS1.passiveQueue4  queueLength:vector  ETV
attr interpolationmode  sample-hold
attr title  "queue length, vector"
vector 6  WRS1.passiveQueue5  queueLength:vector  ETV
attr interpolationmode  sample-hold
attr title  "queue length, vector"
vector 7  WRS1.passiveQueue6  queueLength:vector  ETV
attr interpolationmode  sample-hold
attr title  "queue length, vector"
vector 8  WRS1.passiveQueue7  queueLength:vector  ETV
attr interpolationmode  sample-hold
attr title  "queue length, vector"
vector 4  WRS1.sink  lifeTime:vector  ETV
attr interpolationmode  none
attr title  "lifetime of arrived packets, vector"
attr unit  s
0	1487 47732 0 223597 0 0.998907 2589 0 1 1294 1294
1	49219 46346 0 223687 0 0.99931 2519 0 1 1259 1259
2	95565 45769 0 223754 0 0.999609 2485 0 1 1242 1242
3	141334 46604 0 223216 0 0.997204 2531 0 1 1265 1265
4	187938 253018 25 223825 0.000117 0.999913 9999 1.3e-05 2.6e-05 0.19138399999998 3.8386819999999e-06
5	440956 47081 0 223553 0 0.998712 2561 0 1 1280 1280
6	488037 44959 0 223731 0 0.999505 2447 0 1 1223 1223
7	532996 44813 0 223798 0 0.999804 2435 0 1 1217 1217
8	577809 8 0 0 0 0 1 0 0 0 0
