file 3566432 1329483002                                         
version 2
run FifoWRS-0-20120217-13:49:58-26429
attr configname FifoWRS
attr datetime 20120217-13:49:58
attr experiment FifoWRS
attr inifile omnetpp.ini
attr iterationvars ""
attr iterationvars2 $repetition=0
attr measurement ""
attr network FifoNetWRS
attr processid 26429
attr repetition 0
attr replication #0
attr resultdir results
attr runnumber 0
attr seedset 0

vector 8  FifoNetWRS.wrs  qlen:vector  ETV
attr interpolationmode  sample-hold
attr title  "queue length, vector"
vector 9  FifoNetWRS.wrs  queueingTime:vector  ETV
attr interpolationmode  none
attr title  "queueing time at dequeue, vector"
attr unit  s
vector 7  FifoNetWRS.sink7  lifetime:vector  ETV
attr interpolationmode  none
attr title  "lifetime of arrived jobs, vector"
attr unit  s
vector 2  FifoNetWRS.sink2  lifetime:vector  ETV
attr interpolationmode  none
attr title  "lifetime of arrived jobs, vector"
attr unit  s
vector 1  FifoNetWRS.sink1  lifetime:vector  ETV
attr interpolationmode  none
attr title  "lifetime of arrived jobs, vector"
attr unit  s
vector 3  FifoNetWRS.sink3  lifetime:vector  ETV
attr interpolationmode  none
attr title  "lifetime of arrived jobs, vector"
attr unit  s
vector 5  FifoNetWRS.sink5  lifetime:vector  ETV
attr interpolationmode  none
attr title  "lifetime of arrived jobs, vector"
attr unit  s
vector 4  FifoNetWRS.sink4  lifetime:vector  ETV
attr interpolationmode  none
attr title  "lifetime of arrived jobs, vector"
attr unit  s
vector 0  FifoNetWRS.sink0  lifetime:vector  ETV
attr interpolationmode  none
attr title  "lifetime of arrived jobs, vector"
attr unit  s
vector 6  FifoNetWRS.sink6  lifetime:vector  ETV
attr interpolationmode  none
attr title  "lifetime of arrived jobs, vector"
attr unit  s
0	1726 155613 87 186770 0.02006 59.990036 6031 1.2e-05 9.6e-05 0.303048 1.9099584e-05
1	157339 157026 27 186774 0.00006 59.99006 6087 1.2e-05 9.6e-05 0.302652 1.8880848e-05
2	314365 155725 21 186747 0.000024 59.980096 6031 1.2e-05 9.6e-05 0.30228 1.8864288e-05
3	470090 156007 29 186709 0.000072 59.97006 6041 1.2e-05 9.6e-05 0.302724 1.9007568e-05
4	626097 153278 57 186745 0.010048 59.980084 5935 1.2e-05 9.6e-05 0.298716 1.8819216e-05
5	779375 154487 53 186778 0.010024 59.990084 5989 1.2e-05 9.6e-05 0.300264 1.8887904e-05
6	933862 19807 663 186482 0.210012 59.900012 754 1.2e-05 1.2e-05 0.0090479999999999 1.08576e-07
7	953669 236783 17 186768 0 59.990024 11132 0 9.6e-05 0.29502 1.8504432e-05
8	1190452 1331422 0 186775 0 59.990072 73557 0 7 229958 986742
9	2521874 1044558 9 186775 0 59.990072 42778 0 8.4e-05 1.6004159999998 8.7602399999974e-05
