version 2
run FifoWRS-0-20120216-16:22:55-19444
attr configname FifoWRS
attr datetime 20120216-16:22:55
attr experiment FifoWRS
attr inifile omnetpp.ini
attr iterationvars ""
attr iterationvars2 $repetition=0
attr measurement ""
attr network FifoNetWRS
attr processid 19444
attr repetition 0
attr replication #0
attr resultdir results
attr runnumber 0
attr seedset 0

vector 8  FifoNetWRS.wrs  qlen:vector  ETV
attr interpolationmode  sample-hold
attr title  "queue length, vector"
vector 9  FifoNetWRS.wrs  queueingTime:vector  ETV
attr interpolationmode  none
attr title  "queueing time at dequeue, vector"
attr unit  s
vector 7  FifoNetWRS.sink7  lifetime:vector  ETV
attr interpolationmode  none
attr title  "lifetime of arrived jobs, vector"
attr unit  s
vector 2  FifoNetWRS.sink2  lifetime:vector  ETV
attr interpolationmode  none
attr title  "lifetime of arrived jobs, vector"
attr unit  s
vector 1  FifoNetWRS.sink1  lifetime:vector  ETV
attr interpolationmode  none
attr title  "lifetime of arrived jobs, vector"
attr unit  s
vector 3  FifoNetWRS.sink3  lifetime:vector  ETV
attr interpolationmode  none
attr title  "lifetime of arrived jobs, vector"
attr unit  s
vector 5  FifoNetWRS.sink5  lifetime:vector  ETV
attr interpolationmode  none
attr title  "lifetime of arrived jobs, vector"
attr unit  s
vector 4  FifoNetWRS.sink4  lifetime:vector  ETV
attr interpolationmode  none
attr title  "lifetime of arrived jobs, vector"
attr unit  s
vector 0  FifoNetWRS.sink0  lifetime:vector  ETV
attr interpolationmode  none
attr title  "lifetime of arrived jobs, vector"
attr unit  s
vector 6  FifoNetWRS.sink6  lifetime:vector  ETV
attr interpolationmode  none
attr title  "lifetime of arrived jobs, vector"
attr unit  s
0	87	0.026	0.006
0	118	0.0348	0.0048
0	205	0.0612	0.0012
0	209	0.0636	0.0036
0	235	0.0712	0.0012
0	237	0.0724	0.0024
0	241	0.0748	0.0048
0	277	0.0896	0.0096
0	478	0.1512	0.0012
0	547	0.176	0.006
0	549	0.1772	0.0072
0	600	0.1912	0.0012
0	606	0.1948	0.0048
0	608	0.196	0.006
0	638	0.2036	0.0036
0	665	0.2124	0.0024
0	669	0.2148	0.0048
0	671	0.216	0.006
0	728	0.2324	0.0024
0	759	0.2436	0.0036
0	817	0.2624	0.0024
0	852	0.2736	0.0036
0	885	0.2848	0.0048
0	915	0.2948	0.0048
0	955	0.3096	0.0096
0	1039	0.3324	0.0024
0	1045	0.336	0.006
0	1047	0.3372	0.0072
0	1103	0.3524	0.0024
0	1135	0.3636	0.0036
0	1263	0.4072	0.0072
0	1325	0.4272	0.0072
0	1327	0.4284	0.0084
0	1354	0.4348	0.0048
0	1450	0.466	0.006
0	1475	0.4724	0.0024
0	1481	0.476	0.006
0	1509	0.4848	0.0048
0	1511	0.486	0.006
0	1539	0.4936	0.0036
0	1541	0.4948	0.0048
0	1568	0.5012	0.0012
0	1631	0.5212	0.0012
0	1633	0.5224	0.0024
0	1670	0.536	0.006
0	1704	0.5484	0.0084
0	1762	0.5648	0.0048
0	1821	0.5824	0.0024
0	1861	0.5972	0.0072
0	1863	0.5984	0.0084
0	1891	0.606	0.006
0	1893	0.6072	0.0072
0	2133	0.6824	0.0024
0	2143	0.6884	0.0084
0	2165	0.6924	0.0024
0	2199	0.7036	0.0036
0	2230	0.7124	0.0024
0	2232	0.7136	0.0036
0	2392	0.7684	0.0084
0	2422	0.7784	0.0084
0	2447	0.7836	0.0036
0	2451	0.786	0.006
0	2536	0.8124	0.0024
0	2577	0.8284	0.0084
0	2598	0.8324	0.0024
0	2604	0.836	0.006
0	2608	0.8384	0.0084
0	2658	0.8512	0.0012
0	2668	0.8572	0.0072
0	2701	0.8684	0.0084
0	2756	0.8848	0.0048
0	2758	0.886	0.006
0	2787	0.8924	0.0024
0	2789	0.8936	0.0036
0	2853	0.9172	0.0072
0	2917	0.9384	0.0084
0	2971	0.9512	0.0012
0	3003	0.9636	0.0036
0	3005	0.9648	0.0048
0	3007	0.966	0.006
0	3038	0.9748	0.0048
0	3044	0.9784	0.0084
0	3063	0.9812	0.0012
0	3071	0.986	0.006
0	3100	0.9948	0.0048
0	3125	1.0012	0.0012
0	3129	1.0036	0.0036
0	3137	1.0084	0.0084
0	3165	1.016	0.006
0	3218	1.0312	0.0012
0	3226	1.036	0.006
0	3257	1.046	0.006
0	3259	1.0472	0.0072
0	3291	1.0584	0.0084
0	3316	1.0636	0.0036
0	3343	1.0712	0.0012
0	3345	1.0724	0.0024
0	3351	1.076	0.006
0	3411	1.0948	0.0048
0	3469	1.1124	0.0024
0	3510	1.1272	0.0072
0	3512	1.1284	0.0084
0	3602	1.1572	0.0072
0	3631	1.1648	0.0048
0	3661	1.1748	0.0048
0	3669	1.1796	0.0096
0	3701	1.1896	0.0096
0	3791	1.216	0.006
0	3820	1.2248	0.0048
0	3824	1.2272	0.0072
0	3916	1.2572	0.0072
0	3974	1.2724	0.0024
0	3976	1.2736	0.0036
0	4035	1.2924	0.0024
0	4039	1.2948	0.0048
0	4075	1.3072	0.0072
0	4095	1.3112	0.0012
0	4097	1.3124	0.0024
0	4099	1.3136	0.0036
0	4127	1.3236	0.0036
0	4164	1.336	0.006
0	4193	1.3424	0.0024
0	4216	1.3524	0.0024
0	4222	1.356	0.006
0	4250	1.3648	0.0048
0	4288	1.3772	0.0072
0	4309	1.3824	0.0024
0	4341	1.3924	0.0024
0	4345	1.3948	0.0048
0	4401	1.4124	0.0024
0	4471	1.4384	0.0084
0	4536	1.4596	0.0096
0	4566	1.4684	0.0084
0	4627	1.486	0.006
0	4723	1.5196	0.0096
0	4748	1.5248	0.0048
0	4782	1.5372	0.0072
0	4839	1.5536	0.0036
0	4841	1.5548	0.0048
0	4881	1.5696	0.0096
0	4939	1.5848	0.0048
0	4941	1.586	0.006
0	4963	1.5924	0.0024
0	4967	1.5948	0.0048
0	5001	1.606	0.006
0	5034	1.616	0.006
0	5038	1.6184	0.0084
0	5057	1.6212	0.0012
0	5098	1.6372	0.0072
0	5158	1.6548	0.0048
0	5162	1.6572	0.0072
0	5182	1.6612	0.0012
0	5186	1.6636	0.0036
0	5190	1.666	0.006
0	5252	1.6872	0.0072
0	5275	1.6912	0.0012
0	5277	1.6924	0.0024
0	5281	1.6948	0.0048
0	5287	1.6984	0.0084
0	5339	1.7124	0.0024
0	5349	1.7184	0.0084
0	5408	1.736	0.006
0	5432	1.7412	0.0012
0	5440	1.746	0.006
0	5442	1.7472	0.0072
0	5465	1.7512	0.0012
0	5473	1.756	0.006
0	5508	1.7684	0.0084
0	5537	1.7772	0.0072
0	5651	1.8112	0.0012
0	5653	1.8124	0.0024
0	5689	1.826	0.006
0	5691	1.8272	0.0072
0	5693	1.8284	0.0084
0	5713	1.8312	0.0012
0	5715	1.8324	0.0024
0	5751	1.8448	0.0048
0	5757	1.8484	0.0084
0	5789	1.8572	0.0072
0	5841	1.8724	0.0024
0	5845	1.8748	0.0048
0	5938	1.9036	0.0036
0	6009	1.9272	0.0072
0	6029	1.9324	0.0024
0	6069	1.946	0.006
0	6095	1.9548	0.0048
0	6127	1.9648	0.0048
0	6133	1.9684	0.0084
0	6164	1.9772	0.0072
0	6184	1.9812	0.0012
0	6186	1.9824	0.0024
0	6190	1.9848	0.0048
0	6198	1.9896	0.0096
0	6219	1.9924	0.0024
0	6253	2.0036	0.0036
0	6314	2.0236	0.0036
0	6318	2.026	0.006
0	6320	2.0272	0.0072
0	6383	2.0472	0.0072
0	6438	2.0636	0.0036
0	6498	2.0824	0.0024
0	6500	2.0836	0.0036
0	6533	2.096	0.006
0	6585	2.1112	0.0012
0	6593	2.116	0.006
0	6622	2.1248	0.0048
0	6649	2.1324	0.0024
0	6711	2.1512	0.0012
0	6713	2.1524	0.0024
0	6719	2.156	0.006
0	6748	2.1648	0.0048
0	6768	2.1712	0.0012
0	6770	2.1724	0.0024
0	6802	2.1812	0.0012
0	6835	2.1936	0.0036
0	6895	2.2124	0.0024
0	6903	2.2172	0.0072
0	6929	2.2248	0.0048
0	6935	2.2284	0.0084
0	6960	2.2336	0.0036
0	7026	2.256	0.006
0	7120	2.2848	0.0048
0	7148	2.2936	0.0036
0	7150	2.2948	0.0048
0	7180	2.3036	0.0036
0	7182	2.3048	0.0048
0	7250	2.326	0.006
0	7274	2.3324	0.0024
0	7276	2.3336	0.0036
0	7301	2.3412	0.0012
0	7309	2.346	0.006
0	7311	2.3472	0.0072
0	7340	2.356	0.006
0	7367	2.3636	0.0036
0	7402	2.376	0.006
0	7437	2.3884	0.0084
0	7455	2.3912	0.0012
0	7469	2.3996	0.0096
0	7529	2.4172	0.0072
0	7552	2.4224	0.0024
0	7558	2.426	0.006
0	7614	2.4424	0.0024
0	7626	2.4496	0.0096
0	7648	2.4524	0.0024
0	7652	2.4548	0.0048
0	7654	2.456	0.006
0	7744	2.486	0.006
0	7797	2.5012	0.0012
0	7803	2.5048	0.0048
0	7809	2.5084	0.0084
0	7828	2.5112	0.0012
0	7834	2.5148	0.0048
0	7867	2.526	0.006
0	7869	2.5272	0.0072
0	7893	2.5336	0.0036
0	7895	2.5348	0.0048
0	7928	2.5448	0.0048
0	7934	2.5484	0.0084
0	7986	2.5624	0.0024
0	8016	2.5712	0.0012
0	8030	2.5796	0.0096
0	8061	2.5884	0.0084
0	8080	2.5912	0.0012
0	8092	2.5984	0.0084
0	8179	2.626	0.006
0	8236	2.6436	0.0036
0	8264	2.6512	0.0012
0	8266	2.6524	0.0024
0	8268	2.6536	0.0036
0	8305	2.666	0.006
0	8332	2.6736	0.0036
0	8368	2.6872	0.0072
0	8490	2.7248	0.0048
0	8517	2.7312	0.0012
0	8519	2.7324	0.0024
0	8646	2.7736	0.0036
0	8654	2.7784	0.0084
0	8682	2.7872	0.0072
0	8709	2.7936	0.0036
0	8746	2.8072	0.0072
0	8772	2.8136	0.0036
0	8778	2.8172	0.0072
0	8802	2.8248	0.0048
0	8863	2.8436	0.0036
0	8955	2.8724	0.0024
0	9019	2.8936	0.0036
0	9057	2.906	0.006
0	9084	2.9148	0.0048
0	9112	2.9224	0.0024
0	9118	2.926	0.006
0	9146	2.936	0.006
0	9234	2.9624	0.0024
0	9236	2.9636	0.0036
0	9238	2.9648	0.0048
0	9426	3.026	0.006
0	9453	3.0324	0.0024
0	9483	3.0412	0.0012
0	9517	3.0524	0.0024
0	9581	3.0772	0.0072
0	9583	3.0784	0.0084
0	9663	3.1012	0.0012
0	9673	3.1072	0.0072
0	9675	3.1084	0.0084
0	9693	3.1112	0.0012
0	9699	3.1148	0.0048
0	9705	3.1184	0.0084
0	9728	3.1224	0.0024
0	9738	3.1284	0.0084
0	9793	3.1424	0.0024
0	9797	3.1448	0.0048
0	9827	3.156	0.006
0	9880	3.1724	0.0024
0	9945	3.1924	0.0024
0	9947	3.1936	0.0036
0	9951	3.196	0.006
0	9981	3.206	0.006
0	10047	3.226	0.006
0	10065	3.2312	0.0012
0	10071	3.2348	0.0048
0	10099	3.2412	0.0012
0	10168	3.2648	0.0048
0	10200	3.2784	0.0084
0	10228	3.286	0.006
0	10284	3.3012	0.0012
0	10294	3.3072	0.0072
0	10318	3.3136	0.0036
0	10320	3.3148	0.0048
0	10324	3.3172	0.0072
0	10384	3.3348	0.0048
0	10390	3.3384	0.0084
0	10441	3.3512	0.0012
0	10449	3.356	0.006
0	10473	3.3624	0.0024
0	10483	3.3684	0.0084
0	10508	3.3736	0.0036
0	10516	3.3784	0.0084
0	10540	3.3848	0.0048
0	10544	3.3872	0.0072
0	10573	3.3948	0.0048
0	10605	3.406	0.006
0	10611	3.4096	0.0096
0	10662	3.4224	0.0024
0	10674	3.4296	0.0096
0	10695	3.4324	0.0024
0	10758	3.4536	0.0036
0	10768	3.4596	0.0096
0	10791	3.4636	0.0036
0	10820	3.4724	0.0024
0	10882	3.4912	0.0012
0	10948	3.516	0.006
0	10950	3.5172	0.0072
0	10971	3.5212	0.0012
0	10983	3.5284	0.0084
0	11005	3.5336	0.0036
0	11011	3.5372	0.0072
0	11035	3.5424	0.0024
0	11047	3.5496	0.0096
0	11068	3.5524	0.0024
0	11072	3.5548	0.0048
0	11078	3.5584	0.0084
0	11137	3.5772	0.0072
0	11141	3.5796	0.0096
0	11161	3.5824	0.0024
0	11257	3.6136	0.0036
0	11291	3.626	0.006
0	11293	3.6272	0.0072
0	11321	3.6336	0.0036
0	11325	3.636	0.006
0	11354	3.646	0.006
0	11387	3.6572	0.0072
0	11474	3.6836	0.0036
0	11476	3.6848	0.0048
0	11510	3.696	0.006
0	11539	3.706	0.006
0	11562	3.7112	0.0012
0	11568	3.7148	0.0048
0	11686	3.7512	0.0012
0	11688	3.7524	0.0024
0	11692	3.7548	0.0048
0	11729	3.7672	0.0072
0	11763	3.7796	0.0096
0	11786	3.7836	0.0036
0	11824	3.7984	0.0084
0	11845	3.8012	0.0012
0	11888	3.8184	0.0084
0	11911	3.8236	0.0036
0	11913	3.8248	0.0048
0	11941	3.8336	0.0036
0	11947	3.8372	0.0072
0	12011	3.8572	0.0072
0	12015	3.8596	0.0096
0	12036	3.8624	0.0024
0	12044	3.8672	0.0072
0	12067	3.8724	0.0024
0	12108	3.8884	0.0084
0	12126	3.8912	0.0012
0	12196	3.9148	0.0048
0	12229	3.9272	0.0072
0	12257	3.936	0.006
0	12259	3.9372	0.0072
0	12289	3.9448	0.0048
0	12342	3.9636	0.0036
0	12370	3.9712	0.0012
0	12376	3.9748	0.0048
0	12446	3.9972	0.0072
0	12476	4.0084	0.0084
0	12540	4.0272	0.0072
0	12562	4.0324	0.0024
0	12590	4.0424	0.0024
0	12592	4.0436	0.0036
0	12594	4.0448	0.0048
0	12598	4.0472	0.0072
0	12602	4.0496	0.0096
0	12655	4.0636	0.0036
0	12661	4.0672	0.0072
0	12663	4.0684	0.0084
0	12685	4.0712	0.0012
0	12687	4.0724	0.0024
0	12723	4.0872	0.0072
0	12789	4.1072	0.0072
0	12812	4.1136	0.0036
0	12838	4.1212	0.0012
0	12848	4.1272	0.0072
0	12903	4.1412	0.0012
0	12905	4.1424	0.0024
0	12913	4.1472	0.0072
0	12915	4.1484	0.0084
0	12934	4.1512	0.0012
0	12936	4.1524	0.0024
0	12996	4.1712	0.0012
0	13036	4.186	0.006
0	13042	4.1896	0.0096
0	13062	4.1924	0.0024
0	13064	4.1936	0.0036
0	13066	4.1948	0.0048
0	13160	4.2236	0.0036
0	13293	4.2672	0.0072
0	13348	4.2836	0.0036
0	13354	4.2872	0.0072
0	13408	4.3024	0.0024
0	13410	4.3036	0.0036
0	13412	4.3048	0.0048
0	13414	4.306	0.006
0	13471	4.3236	0.0036
0	13534	4.3448	0.0048
0	13566	4.3536	0.0036
0	13572	4.3572	0.0072
0	13714	4.4024	0.0024
0	13716	4.4036	0.0036
0	13771	4.4212	0.0012
0	13775	4.4236	0.0036
0	13781	4.4272	0.0072
0	13805	4.4324	0.0024
0	13817	4.4396	0.0096
0	13843	4.446	0.006
0	13845	4.4472	0.0072
0	13849	4.4496	0.0096
0	13872	4.4536	0.0036
0	13904	4.4648	0.0048
0	13938	4.4748	0.0048
0	14030	4.5048	0.0048
0	14034	4.5072	0.0072
0	14038	4.5096	0.0096
0	14056	4.5112	0.0012
0	14066	4.5172	0.0072
0	14070	4.5196	0.0096
0	14127	4.5348	0.0048
0	14160	4.5472	0.0072
0	14241	4.5712	0.0012
0	14286	4.5884	0.0084
0	14307	4.5924	0.0024
0	14348	4.6084	0.0084
0	14366	4.6112	0.0012
0	14374	4.616	0.006
0	14408	4.626	0.006
0	14435	4.6348	0.0048
0	14493	4.6524	0.0024
0	14521	4.6612	0.0012
0	14523	4.6624	0.0024
0	14529	4.666	0.006
0	14555	4.6724	0.0024
0	14589	4.6824	0.0024
0	14597	4.6872	0.0072
0	14616	4.6912	0.0012
0	14654	4.7048	0.0048
0	14689	4.7184	0.0084
0	14713	4.7248	0.0048
0	14715	4.726	0.006
0	14719	4.7284	0.0084
0	14740	4.7312	0.0012
0	14748	4.736	0.006
0	14752	4.7384	0.0084
0	14774	4.7436	0.0036
0	14840	4.7648	0.0048
0	14842	4.766	0.006
0	14848	4.7696	0.0096
0	14867	4.7712	0.0012
0	14934	4.7948	0.0048
0	14938	4.7972	0.0072
0	15216	4.8872	0.0072
0	15246	4.8984	0.0084
0	15266	4.9012	0.0012
0	15300	4.9124	0.0024
0	15312	4.9196	0.0096
0	15344	4.9296	0.0096
0	15364	4.9324	0.0024
0	15399	4.9436	0.0036
0	15486	4.9712	0.0012
0	15583	5.0036	0.0036
0	15618	5.0148	0.0048
0	15622	5.0172	0.0072
0	15654	5.0272	0.0072
0	15712	5.046	0.006
0	15718	5.0496	0.0096
0	15744	5.0548	0.0048
0	15780	5.0696	0.0096
0	15798	5.0712	0.0012
0	15812	5.0796	0.0096
0	15898	5.1036	0.0036
0	15904	5.1072	0.0072
0	15930	5.1148	0.0048
0	15936	5.1184	0.0084
0	15960	5.1236	0.0036
0	15964	5.126	0.006
0	16020	5.1424	0.0024
0	16091	5.1672	0.0072
0	16095	5.1696	0.0096
0	16118	5.1736	0.0036
0	16122	5.176	0.006
0	16156	5.1884	0.0084
0	16188	5.1984	0.0084
0	16278	5.2248	0.0048
0	16395	5.2612	0.0012
0	16401	5.2648	0.0048
0	16499	5.2972	0.0072
0	16531	5.3072	0.0072
0	16557	5.3136	0.0036
0	16567	5.3196	0.0096
0	16658	5.346	0.006
0	16684	5.3548	0.0048
0	16686	5.356	0.006
0	16706	5.3612	0.0012
0	16744	5.3736	0.0036
0	16842	5.4084	0.0084
0	16867	5.4148	0.0048
0	16893	5.4212	0.0012
0	16954	5.4412	0.0012
0	16958	5.4436	0.0036
0	16962	5.446	0.006
0	16964	5.4472	0.0072
0	16986	5.4524	0.0024
0	16994	5.4572	0.0072
0	17015	5.4624	0.0024
0	17047	5.4724	0.0024
0	17146	5.506	0.006
0	17171	5.5124	0.0024
0	17202	5.5224	0.0024
0	17298	5.5536	0.0036
0	17304	5.5572	0.0072
0	17333	5.5672	0.0072
0	17367	5.5796	0.0096
0	17387	5.5824	0.0024
0	17395	5.5872	0.0072
0	17459	5.6084	0.0084
0	17510	5.6212	0.0012
0	17512	5.6224	0.0024
0	17542	5.6312	0.0012
0	17584	5.6496	0.0096
0	17605	5.6512	0.0012
0	17633	5.6624	0.0024
0	17666	5.6712	0.0012
0	17674	5.676	0.006
0	17692	5.6812	0.0012
0	17726	5.6912	0.0012
0	17730	5.6936	0.0036
0	17763	5.706	0.006
0	17767	5.7084	0.0084
0	17791	5.7136	0.0036
0	17797	5.7172	0.0072
0	17972	5.7712	0.0012
0	17978	5.7748	0.0048
0	18045	5.7972	0.0072
0	18063	5.8012	0.0012
0	18128	5.8212	0.0012
0	18138	5.8272	0.0072
0	18161	5.8324	0.0024
0	18222	5.8512	0.0012
0	18262	5.866	0.006
0	18314	5.8812	0.0012
0	18322	5.886	0.006
0	18326	5.8884	0.0084
0	18328	5.8896	0.0096
0	18358	5.8972	0.0072
0	18450	5.9272	0.0072
0	18474	5.9324	0.0024
0	18478	5.9348	0.0048
0	18530	5.9512	0.0012
0	18542	5.9584	0.0084
0	18569	5.966	0.006
0	18573	5.9684	0.0084
0	18605	5.9796	0.0096
0	18663	5.996	0.006
0	18691	6.0036	0.0036
0	18724	6.0136	0.0036
0	18728	6.016	0.006
0	18732	6.0184	0.0084
0	18756	6.0248	0.0048
0	18764	6.0296	0.0096
0	18782	6.0312	0.0012
0	18819	6.0436	0.0036
0	18856	6.0572	0.0072
0	18917	6.0772	0.0072
0	18951	6.0884	0.0084
0	18953	6.0896	0.0096
0	18975	6.0936	0.0036
0	18977	6.0948	0.0048
0	18981	6.0972	0.0072
0	18985	6.0996	0.0096
0	19013	6.1072	0.0072
0	19038	6.1124	0.0024
0	19042	6.1148	0.0048
0	19100	6.1324	0.0024
0	19106	6.136	0.006
0	19110	6.1384	0.0084
0	19135	6.1448	0.0048
0	19193	6.1624	0.0024
0	19290	6.1936	0.0036
0	19356	6.2136	0.0036
0	19411	6.2312	0.0012
0	19443	6.2412	0.0012
0	19455	6.2484	0.0084
0	19478	6.2524	0.0024
0	19486	6.2572	0.0072
0	19515	6.266	0.006
0	19610	6.2972	0.0072
0	19632	6.3024	0.0024
0	19638	6.306	0.006
0	19667	6.3136	0.0036
0	19675	6.3184	0.0084
0	19798	6.3572	0.0072
0	19832	6.3696	0.0096
0	19862	6.3772	0.0072
0	19982	6.4148	0.0048
0	20014	6.426	0.006
0	20046	6.4384	0.0084
0	20075	6.446	0.006
0	20137	6.4648	0.0048
0	20162	6.4724	0.0024
0	20168	6.476	0.006
0	20255	6.5012	0.0012
0	20261	6.5048	0.0048
0	20283	6.5112	0.0012
0	20287	6.5136	0.0036
0	20346	6.5312	0.0012
0	20445	6.5636	0.0036
0	20453	6.5684	0.0084
0	20474	6.5712	0.0012
0	20511	6.5848	0.0048
0	20515	6.5872	0.0072
0	20576	6.606	0.006
0	20627	6.6212	0.0012
0	20631	6.6236	0.0036
0	20637	6.6272	0.0072
0	20669	6.636	0.006
0	20692	6.6424	0.0024
0	20696	6.6448	0.0048
0	20755	6.6624	0.0024
0	20790	6.676	0.006
0	20846	6.6936	0.0036
0	20852	6.6972	0.0072
0	20910	6.716	0.006
0	20912	6.7172	0.0072
0	20916	6.7196	0.0096
0	20947	6.7284	0.0084
0	20966	6.7312	0.0012
0	21030	6.7512	0.0012
0	21058	6.7612	0.0012
0	21120	6.7812	0.0012
0	21132	6.7884	0.0084
0	21162	6.7972	0.0072
0	21189	6.8024	0.0024
0	21195	6.806	0.006
0	21213	6.8112	0.0012
0	21223	6.8172	0.0072
0	21249	6.8236	0.0036
0	21253	6.826	0.006
0	21279	6.8324	0.0024
0	21285	6.836	0.006
0	21289	6.8384	0.0084
0	21316	6.8448	0.0048
0	21318	6.846	0.006
0	21405	6.8712	0.0012
0	21441	6.886	0.006
0	21461	6.8912	0.0012
0	21469	6.896	0.006
0	21538	6.9196	0.0096
0	21594	6.936	0.006
0	21618	6.9424	0.0024
0	21680	6.9636	0.0036
0	21743	6.9824	0.0024
0	21777	6.9948	0.0048
0	21779	6.996	0.006
0	21810	7.0048	0.0048
0	21845	7.0172	0.0072
0	21866	7.0212	0.0012
0	21898	7.0324	0.0024
0	21906	7.0372	0.0072
0	21910	7.0396	0.0096
0	21961	7.0524	0.0024
0	21969	7.0572	0.0072
0	21994	7.0624	0.0024
0	21998	7.0648	0.0048
0	22000	7.066	0.006
0	22027	7.0736	0.0036
0	22056	7.0824	0.0024
0	22060	7.0848	0.0048
0	22091	7.0948	0.0048
0	22120	7.1036	0.0036
0	22147	7.1112	0.0012
0	22149	7.1124	0.0024
0	22236	7.1412	0.0012
0	22273	7.1524	0.0024
0	22275	7.1536	0.0036
0	22341	7.1772	0.0072
0	22359	7.1812	0.0012
0	22405	7.1996	0.0096
0	22424	7.2012	0.0012
0	22460	7.2136	0.0036
0	22485	7.2212	0.0012
0	22521	7.2348	0.0048
0	22523	7.236	0.006
0	22529	7.2396	0.0096
0	22580	7.2512	0.0012
0	22584	7.2536	0.0036
0	22588	7.256	0.006
0	22640	7.2712	0.0012
0	22642	7.2724	0.0024
0	22646	7.2748	0.0048
0	22681	7.286	0.006
0	22717	7.2996	0.0096
0	22807	7.3248	0.0048
0	22872	7.3496	0.0096
0	22898	7.356	0.006
0	22958	7.3736	0.0036
0	22988	7.3812	0.0012
0	22990	7.3824	0.0024
0	23118	7.4248	0.0048
0	23120	7.426	0.006
0	23122	7.4272	0.0072
0	23182	7.4472	0.0072
0	23186	7.4496	0.0096
0	23248	7.4696	0.0096
0	23269	7.4724	0.0024
0	23271	7.4736	0.0036
0	23273	7.4748	0.0048
0	23311	7.4896	0.0096
0	23331	7.4912	0.0012
0	23369	7.506	0.006
0	23371	7.5072	0.0072
0	23392	7.5124	0.0024
0	23423	7.5224	0.0024
0	23456	7.5336	0.0036
0	23460	7.536	0.006
0	23462	7.5372	0.0072
0	23490	7.546	0.006
0	23524	7.5572	0.0072
0	23526	7.5584	0.0084
0	23558	7.5684	0.0084
0	23578	7.5712	0.0012
0	23584	7.5748	0.0048
0	23612	7.5824	0.0024
0	23624	7.5896	0.0096
0	23649	7.5948	0.0048
0	23718	7.6196	0.0096
0	23748	7.6272	0.0072
0	23771	7.6336	0.0036
0	23775	7.636	0.006
0	23834	7.6548	0.0048
0	23895	7.6748	0.0048
0	23929	7.6872	0.0072
0	23996	7.7096	0.0096
0	24019	7.7136	0.0036
0	24049	7.7236	0.0036
0	24085	7.736	0.006
0	24142	7.7512	0.0012
0	24146	7.7536	0.0036
0	24176	7.7648	0.0048
0	24302	7.806	0.006
0	24304	7.8072	0.0072
0	24358	7.8212	0.0012
0	24360	7.8224	0.0024
0	24372	7.8296	0.0096
0	24436	7.8496	0.0096
0	24460	7.8548	0.0048
0	24489	7.8624	0.0024
0	24520	7.8724	0.0024
0	24551	7.8824	0.0024
0	24579	7.8912	0.0012
0	24581	7.8924	0.0024
0	24616	7.9024	0.0024
0	24622	7.906	0.006
0	24643	7.9124	0.0024
0	24651	7.9172	0.0072
0	24653	7.9184	0.0084
0	24673	7.9224	0.0024
0	24681	7.9272	0.0072
0	24708	7.9336	0.0036
0	24744	7.9472	0.0072
0	24769	7.9512	0.0012
0	24771	7.9524	0.0024
0	24773	7.9536	0.0036
0	24800	7.9636	0.0036
0	24831	7.9736	0.0036
0	24862	7.9836	0.0036
0	24900	7.9984	0.0084
0	24933	8.0084	0.0084
0	24956	8.0136	0.0036
0	24985	8.0224	0.0024
0	25021	8.036	0.006
0	25025	8.0384	0.0084
0	25050	8.0436	0.0036
0	25114	8.0648	0.0048
0	25140	8.0724	0.0024
0	25239	8.1036	0.0036
0	25243	8.106	0.006
0	25305	8.1272	0.0072
0	25327	8.1324	0.0024
0	25358	8.1412	0.0012
0	25450	8.1712	0.0012
0	25485	8.1824	0.0024
0	25495	8.1884	0.0084
0	25548	8.2036	0.0036
0	25585	8.216	0.006
0	25589	8.2184	0.0084
0	25641	8.2324	0.0024
0	25653	8.2396	0.0096
0	25741	8.2648	0.0048
0	25743	8.266	0.006
0	25765	8.2712	0.0012
0	25775	8.2772	0.0072
0	25831	8.2936	0.0036
0	25859	8.3024	0.0024
0	25867	8.3072	0.0072
0	25951	8.3312	0.0012
0	26026	8.3584	0.0084
0	26028	8.3596	0.0096
0	26050	8.3624	0.0024
0	26141	8.3924	0.0024
0	26143	8.3936	0.0036
0	26153	8.3996	0.0096
0	26182	8.4072	0.0072
0	26208	8.4148	0.0048
0	26237	8.4224	0.0024
0	26239	8.4236	0.0036
0	26275	8.4372	0.0072
0	26304	8.4448	0.0048
0	26306	8.446	0.006
0	26337	8.456	0.006
0	26391	8.4712	0.0012
0	26424	8.4812	0.0012
0	26432	8.486	0.006
0	26467	8.4984	0.0084
0	26578	8.5312	0.0012
0	26582	8.5336	0.0036
0	26642	8.5512	0.0012
0	26648	8.5548	0.0048
0	26672	8.5612	0.0012
0	26701	8.5712	0.0012
0	26735	8.5824	0.0024
0	26737	8.5836	0.0036
0	26806	8.6084	0.0084
0	26857	8.6212	0.0012
0	26916	8.6412	0.0012
0	26930	8.6496	0.0096
0	27049	8.686	0.006
0	27109	8.7036	0.0036
0	27113	8.706	0.006
0	27138	8.7112	0.0012
0	27146	8.716	0.006
0	27231	8.7436	0.0036
0	27260	8.7512	0.0012
0	27293	8.7624	0.0024
0	27297	8.7648	0.0048
0	27364	8.7872	0.0072
0	27393	8.7972	0.0072
0	27421	8.8048	0.0048
0	27457	8.8196	0.0096
0	27489	8.8296	0.0096
0	27520	8.8384	0.0084
0	27572	8.8524	0.0024
0	27607	8.8636	0.0036
0	27611	8.866	0.006
0	27675	8.8872	0.0072
0	27697	8.8912	0.0012
0	27707	8.8972	0.0072
0	27742	8.9084	0.0084
0	27766	8.9148	0.0048
0	27795	8.9212	0.0012
0	27865	8.9496	0.0096
0	27887	8.9536	0.0036
0	27891	8.956	0.006
0	27897	8.9596	0.0096
0	27921	8.9648	0.0048
0	27927	8.9684	0.0084
0	27985	8.986	0.006
0	28039	9.0012	0.0012
0	28043	9.0036	0.0036
0	28047	9.006	0.006
0	28107	9.0272	0.0072
0	28223	9.0636	0.0036
0	28231	9.0684	0.0084
0	28402	9.1212	0.0012
0	28408	9.1248	0.0048
0	28414	9.1284	0.0084
0	28437	9.1336	0.0036
0	28439	9.1348	0.0048
0	28443	9.1372	0.0072
0	28469	9.1448	0.0048
0	28570	9.1784	0.0084
0	28572	9.1796	0.0096
0	28599	9.186	0.006
0	28690	9.2148	0.0048
0	28694	9.2172	0.0072
0	28696	9.2184	0.0084
0	28753	9.2348	0.0048
0	28780	9.2424	0.0024
0	28782	9.2436	0.0036
0	28844	9.2636	0.0036
0	28854	9.2696	0.0096
0	28873	9.2712	0.0012
0	28875	9.2724	0.0024
0	28881	9.276	0.006
0	28940	9.296	0.006
0	28946	9.2996	0.0096
0	29033	9.3248	0.0048
0	29060	9.3312	0.0012
0	29100	9.3472	0.0072
0	29104	9.3496	0.0096
0	29153	9.3612	0.0012
0	29155	9.3624	0.0024
0	29163	9.3672	0.0072
0	29216	9.3824	0.0024
0	29222	9.386	0.006
0	29284	9.406	0.006
0	29313	9.4136	0.0036
0	29317	9.416	0.006
0	29347	9.426	0.006
0	29375	9.4324	0.0024
0	29434	9.4512	0.0012
0	29440	9.4548	0.0048
0	29467	9.4636	0.0036
0	29558	9.4924	0.0024
0	29568	9.4984	0.0084
0	29592	9.5024	0.0024
0	29619	9.5112	0.0012
0	29651	9.5224	0.0024
0	29661	9.5284	0.0084
0	29746	9.5524	0.0024
0	29810	9.5724	0.0024
0	29814	9.5748	0.0048
0	29849	9.586	0.006
0	29851	9.5872	0.0072
0	29871	9.5912	0.0012
0	29875	9.5936	0.0036
0	29908	9.6036	0.0036
0	29976	9.626	0.006
0	29996	9.6312	0.0012
0	30006	9.6372	0.0072
0	30055	9.6512	0.0012
0	30059	9.6536	0.0036
0	30061	9.6548	0.0048
0	30069	9.6596	0.0096
0	30091	9.6624	0.0024
0	30099	9.6672	0.0072
0	30150	9.6812	0.0012
0	30250	9.716	0.006
0	30278	9.726	0.006
0	30403	9.766	0.006
0	30405	9.7672	0.0072
0	30437	9.7772	0.0072
0	30465	9.7848	0.0048
0	30469	9.7872	0.0072
0	30497	9.7948	0.0048
0	30501	9.7972	0.0072
0	30503	9.7984	0.0084
0	30534	9.8072	0.0072
0	30556	9.8112	0.0012
0	30584	9.8212	0.0012
0	30586	9.8224	0.0024
0	30592	9.826	0.006
0	30660	9.8484	0.0084
0	30690	9.8584	0.0084
0	30809	9.8948	0.0048
0	30843	9.9084	0.0084
0	30908	9.9296	0.0096
0	30939	9.9384	0.0084
0	30964	9.9448	0.0048
0	30997	9.956	0.006
0	31049	9.9712	0.0012
0	31116	9.9948	0.0048
0	31142	10.0024	0.0024
0	31148	10.006	0.006
0	31154	10.0096	0.0096
0	31185	10.0184	0.0084
0	31217	10.0296	0.0096
0	31237	10.0324	0.0024
0	31245	10.0372	0.0072
0	31269	10.0412	0.0012
0	31273	10.0436	0.0036
0	31334	10.066	0.006
0	31336	10.0672	0.0072
0	31357	10.0712	0.0012
0	31395	10.0848	0.0048
0	31427	10.096	0.006
0	31479	10.1112	0.0012
0	31483	10.1136	0.0036
0	31489	10.1172	0.0072
0	31555	10.1384	0.0084
0	31617	10.1572	0.0072
0	31702	10.1824	0.0024
0	31735	10.1924	0.0024
0	31743	10.1972	0.0072
0	31763	10.2012	0.0012
0	31839	10.2284	0.0084
0	31866	10.236	0.006
0	31932	10.2584	0.0084
0	32027	10.2872	0.0072
0	32050	10.2924	0.0024
0	32112	10.3124	0.0024
0	32181	10.336	0.006
0	32207	10.3436	0.0036
0	32300	10.3736	0.0036
0	32304	10.376	0.006
0	32340	10.3872	0.0072
0	32367	10.396	0.006
0	32429	10.4172	0.0072
0	32458	10.4248	0.0048
0	32525	10.4496	0.0096
0	32549	10.4548	0.0048
0	32577	10.4624	0.0024
0	32617	10.476	0.006
0	32619	10.4772	0.0072
0	32646	10.486	0.006
0	32736	10.5148	0.0048
0	32766	10.5248	0.0048
0	32774	10.5296	0.0096
0	32804	10.5384	0.0084
0	32806	10.5396	0.0096
0	32828	10.5436	0.0036
0	32889	10.5612	0.0012
0	32925	10.5736	0.0036
0	32929	10.576	0.006
0	32952	10.5824	0.0024
0	32962	10.5884	0.0084
0	32980	10.5912	0.0012
0	32988	10.596	0.006
0	32990	10.5972	0.0072
0	32994	10.5996	0.0096
0	33136	10.6412	0.0012
0	33177	10.656	0.006
0	33181	10.6584	0.0084
0	33200	10.6612	0.0012
0	33204	10.6636	0.0036
0	33212	10.6684	0.0084
0	33264	10.6824	0.0024
0	33272	10.6872	0.0072
0	33333	10.706	0.006
0	33355	10.7112	0.0012
0	33365	10.7172	0.0072
0	33387	10.7212	0.0012
0	33395	10.726	0.006
0	33399	10.7284	0.0084
0	33425	10.7348	0.0048
0	33487	10.7536	0.0036
0	33524	10.766	0.006
0	33586	10.7872	0.0072
0	33617	10.796	0.006
0	33675	10.8124	0.0024
0	33705	10.8236	0.0036
0	33707	10.8248	0.0048
0	33715	10.8296	0.0096
0	33745	10.8384	0.0084
0	33769	10.8436	0.0036
0	33809	10.8584	0.0084
0	33831	10.8624	0.0024
0	33843	10.8696	0.0096
0	33904	10.8872	0.0072
0	33929	10.8936	0.0036
0	33963	10.9048	0.0048
0	33965	10.906	0.006
0	34120	10.956	0.006
0	34245	10.9972	0.0072
0	34265	11.0012	0.0012
0	34330	11.0224	0.0024
0	34332	11.0236	0.0036
0	34340	11.0284	0.0084
0	34342	11.0296	0.0096
0	34420	11.0512	0.0012
0	34430	11.0572	0.0072
0	34453	11.0612	0.0012
0	34491	11.076	0.006
0	34495	11.0784	0.0084
0	34518	11.0824	0.0024
0	34520	11.0836	0.0036
0	34550	11.0924	0.0024
0	34578	11.1024	0.0024
0	34586	11.1072	0.0072
0	34615	11.1148	0.0048
0	34617	11.116	0.006
0	34641	11.1212	0.0012
0	34651	11.1272	0.0072
0	34671	11.1312	0.0012
0	34673	11.1324	0.0024
0	34701	11.1424	0.0024
0	34713	11.1496	0.0096
0	34735	11.1536	0.0036
0	34829	11.1824	0.0024
0	34859	11.1912	0.0012
0	34863	11.1936	0.0036
0	34873	11.1996	0.0096
0	34903	11.2084	0.0084
0	34927	11.2124	0.0024
0	34959	11.2248	0.0048
0	34996	11.2372	0.0072
0	35020	11.2436	0.0036
0	35050	11.2512	0.0012
0	35078	11.2612	0.0012
0	35080	11.2624	0.0024
0	35121	11.2772	0.0072
0	35146	11.2836	0.0036
0	35235	11.3112	0.0012
0	35237	11.3124	0.0024
0	35241	11.3148	0.0048
0	35299	11.3324	0.0024
0	35305	11.336	0.006
0	35330	11.3424	0.0024
0	35364	11.3548	0.0048
0	35370	11.3584	0.0084
0	35372	11.3596	0.0096
0	35394	11.3636	0.0036
0	35396	11.3648	0.0048
0	35429	11.3748	0.0048
0	35431	11.376	0.006
0	35489	11.3936	0.0036
0	35495	11.3972	0.0072
0	35528	11.4084	0.0084
0	35556	11.4172	0.0072
0	35614	11.4336	0.0036
0	35672	11.4536	0.0036
0	35709	11.466	0.006
0	35736	11.4736	0.0036
0	35764	11.4824	0.0024
0	35796	11.4912	0.0012
0	35800	11.4936	0.0036
0	35836	11.5084	0.0084
0	35896	11.526	0.006
0	35898	11.5272	0.0072
0	35900	11.5284	0.0084
0	35948	11.5412	0.0012
0	36015	11.5612	0.0012
0	36017	11.5624	0.0024
0	36019	11.5636	0.0036
0	36078	11.586	0.006
0	36080	11.5872	0.0072
0	36111	11.5972	0.0072
0	36136	11.6024	0.0024
0	36170	11.616	0.006
0	36195	11.6236	0.0036
0	36224	11.6324	0.0024
0	36230	11.636	0.006
0	36259	11.6448	0.0048
0	36294	11.6572	0.0072
0	36384	11.6872	0.0072
0	36386	11.6884	0.0084
0	36420	11.6996	0.0096
0	36452	11.7096	0.0096
0	36471	11.7112	0.0012
0	36475	11.7136	0.0036
0	36479	11.716	0.006
0	36481	11.7172	0.0072
0	36541	11.736	0.006
0	36567	11.7424	0.0024
0	36569	11.7436	0.0036
0	36603	11.7548	0.0048
0	36642	11.7684	0.0084
0	36699	11.786	0.006
0	36701	11.7872	0.0072
0	36705	11.7896	0.0096
0	36727	11.7936	0.0036
0	36729	11.7948	0.0048
0	36768	11.8084	0.0084
0	36786	11.8112	0.0012
0	36788	11.8124	0.0024
0	36790	11.8136	0.0036
0	36800	11.8196	0.0096
0	36849	11.8324	0.0024
0	36851	11.8336	0.0036
0	36859	11.8384	0.0084
0	36925	11.8596	0.0096
0	37014	11.8872	0.0072
0	37039	11.8936	0.0036
0	37045	11.8972	0.0072
0	37068	11.9024	0.0024
0	37074	11.906	0.006
0	37101	11.9136	0.0036
0	37141	11.9296	0.0096
0	37170	11.9372	0.0072
0	37194	11.9436	0.0036
0	37202	11.9484	0.0084
0	37261	11.966	0.006
0	37293	11.9748	0.0048
0	37323	11.986	0.006
0	37327	11.9884	0.0084
0	37353	11.9948	0.0048
0	37359	11.9984	0.0084
0	37441	12.0212	0.0012
0	37473	12.0324	0.0024
0	37503	12.0412	0.0012
0	37507	12.0436	0.0036
0	37517	12.0496	0.0096
0	37536	12.0512	0.0012
0	37544	12.056	0.006
0	37576	12.0672	0.0072
0	37598	12.0712	0.0012
0	37602	12.0736	0.0036
0	37663	12.0912	0.0012
0	37697	12.1036	0.0036
0	37762	12.1236	0.0036
0	37798	12.136	0.006
0	37853	12.1524	0.0024
0	37863	12.1584	0.0084
0	37886	12.1636	0.0036
0	38048	12.216	0.006
0	38137	12.2448	0.0048
0	38193	12.2612	0.0012
0	38288	12.2924	0.0024
0	38321	12.3024	0.0024
0	38331	12.3084	0.0084
0	38361	12.3184	0.0084
0	38386	12.3236	0.0036
0	38392	12.3272	0.0072
0	38420	12.3348	0.0048
0	38443	12.3412	0.0012
0	38445	12.3424	0.0024
0	38537	12.3724	0.0024
0	38543	12.376	0.006
0	38545	12.3772	0.0072
0	38570	12.3824	0.0024
0	38572	12.3836	0.0036
0	38580	12.3884	0.0084
0	38606	12.3948	0.0048
0	38636	12.4048	0.0048
0	38672	12.4196	0.0096
0	38701	12.4272	0.0072
0	38728	12.4348	0.0048
0	38785	12.4524	0.0024
0	38815	12.4612	0.0012
0	38943	12.5012	0.0012
0	38982	12.516	0.006
0	39012	12.526	0.006
0	39014	12.5272	0.0072
0	39075	12.546	0.006
0	39103	12.556	0.006
0	39128	12.5612	0.0012
0	39130	12.5624	0.0024
0	39132	12.5636	0.0036
0	39134	12.5648	0.0048
0	39136	12.566	0.006
0	39168	12.5772	0.0072
0	39231	12.596	0.006
0	39233	12.5972	0.0072
0	39235	12.5984	0.0084
0	39255	12.6024	0.0024
0	39259	12.6048	0.0048
0	39261	12.606	0.006
0	39263	12.6072	0.0072
0	39290	12.6136	0.0036
0	39317	12.6212	0.0012
0	39323	12.6248	0.0048
0	39393	12.6496	0.0096
0	39415	12.6536	0.0036
0	39449	12.6648	0.0048
0	39451	12.666	0.006
0	39453	12.6672	0.0072
0	39489	12.6796	0.0096
0	39518	12.6872	0.0072
0	39547	12.696	0.006
0	39576	12.7048	0.0048
0	39582	12.7084	0.0084
0	39667	12.7336	0.0036
0	39697	12.7436	0.0036
0	39727	12.7524	0.0024
0	39757	12.766	0.006
0	39761	12.7684	0.0084
0	39784	12.7724	0.0024
0	39825	12.7884	0.0084
0	39846	12.7924	0.0024
0	39882	12.806	0.006
0	39918	12.8184	0.0084
0	39920	12.8196	0.0096
0	39939	12.8212	0.0012
0	40004	12.8436	0.0036
0	40034	12.8524	0.0024
0	40065	12.8612	0.0012