version 2
run FifoWRS-0-20120220-15:26:26-26934
attr configname FifoWRS
attr datetime 20120220-15:26:26
attr experiment FifoWRS
attr inifile omnetpp.ini
attr iterationvars ""
attr iterationvars2 $repetition=0
attr measurement ""
attr network FifoNetWRS
attr processid 26934
attr repetition 0
attr replication #0
attr resultdir results
attr runnumber 0
attr seedset 0

vector 8  FifoNetWRS.wrs  qlen:vector  ETV
attr interpolationmode  sample-hold
attr title  "queue length, vector"
vector 9  FifoNetWRS.wrs  queueingTime:vector  ETV
attr interpolationmode  none
attr title  "queueing time at dequeue, vector"
attr unit  s
vector 7  FifoNetWRS.sink7  lifetime:vector  ETV
attr interpolationmode  none
attr title  "lifetime of arrived jobs, vector"
attr unit  s
vector 2  FifoNetWRS.sink2  lifetime:vector  ETV
attr interpolationmode  none
attr title  "lifetime of arrived jobs, vector"
attr unit  s
vector 1  FifoNetWRS.sink1  lifetime:vector  ETV
attr interpolationmode  none
attr title  "lifetime of arrived jobs, vector"
attr unit  s
vector 3  FifoNetWRS.sink3  lifetime:vector  ETV
attr interpolationmode  none
attr title  "lifetime of arrived jobs, vector"
attr unit  s
vector 5  FifoNetWRS.sink5  lifetime:vector  ETV
attr interpolationmode  none
attr title  "lifetime of arrived jobs, vector"
attr unit  s
vector 4  FifoNetWRS.sink4  lifetime:vector  ETV
attr interpolationmode  none
attr title  "lifetime of arrived jobs, vector"
attr unit  s
vector 0  FifoNetWRS.sink0  lifetime:vector  ETV
attr interpolationmode  none
attr title  "lifetime of arrived jobs, vector"
attr unit  s
vector 6  FifoNetWRS.sink6  lifetime:vector  ETV
attr interpolationmode  none
attr title  "lifetime of arrived jobs, vector"
attr unit  s
0	87	0.0225	0.0025
0	118	0.032	0.002
0	205	0.0605	0.0005
0	209	0.0615	0.0015
0	235	0.0705	0.0005
0	237	0.071	0.001
0	241	0.072	0.002
0	277	0.084	0.004
0	478	0.1505	0.0005
0	547	0.1725	0.0025
0	549	0.173	0.003
0	600	0.1905	0.0005
0	606	0.192	0.002
0	608	0.1925	0.0025
0	638	0.2015	0.0015
0	665	0.211	0.001
0	669	0.212	0.002
0	671	0.2125	0.0025
0	728	0.231	0.001
0	759	0.2415	0.0015
0	817	0.261	0.001
0	852	0.2715	0.0015
0	885	0.282	0.002
0	915	0.292	0.002
0	955	0.304	0.004
0	1039	0.331	0.001
0	1045	0.3325	0.0025
0	1047	0.333	0.003
0	1103	0.351	0.001
0	1135	0.3615	0.0015
0	1263	0.403	0.003
0	1325	0.423	0.003
0	1327	0.4235	0.0035
0	1354	0.432	0.002
0	1450	0.4625	0.0025
0	1475	0.471	0.001
0	1481	0.4725	0.0025
0	1509	0.482	0.002
0	1511	0.4825	0.0025
0	1539	0.4915	0.0015
0	1541	0.492	0.002
0	1568	0.5005	0.0005
0	1631	0.5205	0.0005
0	1633	0.521	0.001
0	1670	0.5325	0.0025
0	1704	0.5435	0.0035
0	1762	0.562	0.002
0	1821	0.581	0.001
0	1861	0.593	0.003
0	1863	0.5935	0.0035
0	1891	0.6025	0.0025
0	1893	0.603	0.003
0	2133	0.681	0.001
0	2143	0.6835	0.0035
0	2165	0.691	0.001
0	2199	0.7015	0.0015
0	2230	0.711	0.001
0	2232	0.7115	0.0015
0	2392	0.7635	0.0035
0	2422	0.7735	0.0035
0	2447	0.7815	0.0015
0	2451	0.7825	0.0025
0	2536	0.811	0.001
0	2577	0.8235	0.0035
0	2598	0.831	0.001
0	2604	0.8325	0.0025
0	2608	0.8335	0.0035
0	2658	0.8505	0.0005
0	2668	0.853	0.003
0	2701	0.8635	0.0035
0	2756	0.882	0.002
0	2758	0.8825	0.0025
0	2787	0.891	0.001
0	2789	0.8915	0.0015
0	2853	0.913	0.003
0	2917	0.9335	0.0035
0	2971	0.9505	0.0005
0	3003	0.9615	0.0015
0	3005	0.962	0.002
0	3007	0.9625	0.0025
0	3038	0.972	0.002
0	3044	0.9735	0.0035
0	3063	0.9805	0.0005
0	3071	0.9825	0.0025
0	3100	0.992	0.002
1	27	0.0025	0.0025
1	83	0.0215	0.0015
1	89	0.023	0.003
1	91	0.0235	0.0035
1	112	0.0305	0.0005
1	116	0.0315	0.0015
1	120	0.0325	0.0025
1	211	0.062	0.002
1	243	0.0725	0.0025
1	329	0.101	0.001
1	337	0.103	0.003
1	396	0.1225	0.0025
1	415	0.1305	0.0005
1	448	0.141	0.001
1	450	0.1415	0.0015
1	458	0.1435	0.0035
1	480	0.151	0.001
1	512	0.162	0.002
1	516	0.163	0.003
1	518	0.1635	0.0035
1	539	0.1705	0.0005
1	543	0.1715	0.0015
1	570	0.1805	0.0005
1	572	0.181	0.001
1	602	0.191	0.001
1	610	0.193	0.003
1	640	0.202	0.002
1	642	0.2025	0.0025
1	644	0.203	0.003
1	675	0.2135	0.0035
1	694	0.2205	0.0005
1	795	0.2525	0.0025
1	821	0.262	0.002
1	825	0.263	0.003
1	850	0.271	0.001
1	856	0.2725	0.0025
1	923	0.294	0.004
1	951	0.303	0.003
1	983	0.313	0.003
1	1012	0.322	0.002
1	1081	0.344	0.004
1	1109	0.3525	0.0025
1	1163	0.371	0.001
1	1193	0.3815	0.0015
1	1225	0.3915	0.0015
1	1231	0.393	0.003
1	1257	0.4015	0.0015
1	1259	0.402	0.002
1	1265	0.4035	0.0035
1	1323	0.4225	0.0025
1	1385	0.442	0.002
1	1391	0.4435	0.0035
1	1417	0.4525	0.0025
1	1446	0.4615	0.0015
1	1503	0.4805	0.0005
1	1537	0.491	0.001
1	1600	0.511	0.001
1	1610	0.5135	0.0035
1	1635	0.5215	0.0015
1	1639	0.5225	0.0025
1	1698	0.542	0.002
1	1700	0.5425	0.0025
1	1728	0.5515	0.0015
1	1736	0.5535	0.0035
1	1758	0.561	0.001
1	1859	0.5925	0.0025
1	1883	0.6005	0.0005
1	1920	0.6115	0.0015
1	1949	0.621	0.001
1	1951	0.6215	0.0015
1	1959	0.6235	0.0035
1	1989	0.633	0.003
1	2077	0.663	0.003
1	2113	0.674	0.004
1	2175	0.6935	0.0035
1	2195	0.7005	0.0005
1	2238	0.713	0.003
1	2240	0.7135	0.0035
1	2296	0.7325	0.0025
1	2322	0.741	0.001
1	2361	0.7535	0.0035
1	2386	0.762	0.002
1	2412	0.771	0.001
1	2445	0.781	0.001
1	2477	0.791	0.001
1	2505	0.8005	0.0005
1	2544	0.813	0.003
1	2565	0.8205	0.0005
1	2567	0.821	0.001
1	2571	0.822	0.002
1	2573	0.8225	0.0025
1	2575	0.823	0.003
1	2596	0.8305	0.0005
1	2635	0.8425	0.0025
1	2639	0.8435	0.0035
1	2689	0.8605	0.0005
1	2752	0.881	0.001
1	2760	0.883	0.003
1	2762	0.8835	0.0035
1	2764	0.884	0.004
1	2814	0.901	0.001
1	2845	0.911	0.001
1	2873	0.9205	0.0005
1	2909	0.9315	0.0015
1	3040	0.9725	0.0025
1	3065	0.981	0.001
1	3075	0.9835	0.0035
2	21	0.001	0.001
2	55	0.0115	0.0015
2	114	0.031	0.001
2	151	0.0425	0.0025
2	179	0.0515	0.0015
2	239	0.0715	0.0015
2	267	0.0815	0.0015
2	297	0.0905	0.0005
2	331	0.1015	0.0015
2	367	0.113	0.003
2	388	0.1205	0.0005
2	394	0.122	0.002
2	419	0.1315	0.0015
2	446	0.1405	0.0005
2	456	0.143	0.003
2	482	0.1515	0.0015
2	488	0.153	0.003
2	612	0.1935	0.0035
2	696	0.221	0.001
2	706	0.2235	0.0035
2	793	0.252	0.002
2	887	0.2825	0.0025
2	891	0.2835	0.0035
2	913	0.2915	0.0015
2	943	0.301	0.001
2	945	0.3015	0.0015
2	973	0.3105	0.0005
2	1111	0.353	0.003
2	1139	0.3625	0.0025
2	1189	0.3805	0.0005
2	1199	0.383	0.003
2	1201	0.3835	0.0035
2	1221	0.3905	0.0005
2	1235	0.394	0.004
2	1261	0.4025	0.0025
2	1295	0.4125	0.0025
2	1315	0.4205	0.0005
2	1356	0.4325	0.0025
2	1383	0.4415	0.0015
2	1411	0.451	0.001
2	1415	0.452	0.002
2	1448	0.462	0.002
2	1483	0.473	0.003
2	1505	0.481	0.001
2	1513	0.483	0.003
2	1543	0.4925	0.0025
2	1549	0.494	0.004
2	1598	0.5105	0.0005
2	1637	0.522	0.002
2	1730	0.552	0.002
2	1734	0.553	0.003
2	1738	0.554	0.004
2	1764	0.5625	0.0025
2	1766	0.563	0.003
2	1833	0.584	0.004
2	1979	0.6305	0.0005
2	2011	0.641	0.001
2	2075	0.6625	0.0025
2	2103	0.6715	0.0015
2	2145	0.684	0.004
2	2169	0.692	0.002
2	2173	0.693	0.003
2	2177	0.694	0.004
2	2197	0.701	0.001
2	2209	0.704	0.004
2	2228	0.7105	0.0005
2	2265	0.7215	0.0015
2	2267	0.722	0.002
2	2298	0.733	0.003
2	2300	0.7335	0.0035
2	2324	0.7415	0.0015
2	2353	0.7515	0.0015
2	2380	0.7605	0.0005
2	2479	0.7915	0.0015
2	2481	0.792	0.002
2	2513	0.8025	0.0025
2	2600	0.8315	0.0015
2	2627	0.8405	0.0005
2	2629	0.841	0.001
2	2631	0.8415	0.0015
2	2660	0.851	0.001
2	2791	0.892	0.002
2	2818	0.902	0.002
2	2877	0.9215	0.0015
2	2885	0.9235	0.0035
2	3009	0.963	0.003
2	3036	0.9715	0.0015
2	3042	0.973	0.003
2	3094	0.9905	0.0005
3	29	0.003	0.003
3	51	0.0105	0.0005
3	59	0.0125	0.0025
3	145	0.041	0.001
3	153	0.043	0.003
3	181	0.052	0.002
3	183	0.0525	0.0025
3	215	0.063	0.003
3	263	0.0805	0.0005
3	301	0.0915	0.0015
3	307	0.093	0.003
3	335	0.1025	0.0025
3	357	0.1105	0.0005
3	423	0.1325	0.0025
3	427	0.1335	0.0035
3	452	0.142	0.002
3	508	0.161	0.001
3	510	0.1615	0.0015
3	700	0.222	0.002
3	734	0.2325	0.0025
3	829	0.264	0.004
3	848	0.2705	0.0005
3	879	0.2805	0.0005
3	909	0.2905	0.0005
3	917	0.2925	0.0025
3	947	0.302	0.002
3	981	0.3125	0.0025
3	1008	0.321	0.001
3	1018	0.3235	0.0035
3	1041	0.3315	0.0015
3	1049	0.3335	0.0035
3	1073	0.342	0.002
3	1077	0.343	0.003
3	1079	0.3435	0.0035
3	1107	0.352	0.002
3	1169	0.3725	0.0025
3	1195	0.382	0.002
3	1223	0.391	0.001
3	1267	0.404	0.004
3	1287	0.4105	0.0005
3	1297	0.413	0.003
3	1321	0.422	0.002
3	1348	0.4305	0.0005
3	1350	0.431	0.001
3	1352	0.4315	0.0015
3	1360	0.4335	0.0035
3	1419	0.453	0.003
3	1444	0.461	0.001
3	1473	0.4705	0.0005
3	1515	0.4835	0.0035
3	1578	0.503	0.003
3	1580	0.5035	0.0035
3	1643	0.5235	0.0035
3	1662	0.5305	0.0005
3	1664	0.531	0.001
3	1672	0.533	0.003
3	1696	0.5415	0.0015
3	1732	0.5525	0.0025
3	1768	0.5635	0.0035
3	1789	0.5705	0.0005
3	1801	0.5735	0.0035
3	1851	0.5905	0.0005
3	1895	0.6035	0.0035
3	1897	0.604	0.004
3	1922	0.612	0.002
3	1928	0.6135	0.0035
3	2041	0.651	0.001
3	2071	0.6615	0.0015
3	2292	0.7315	0.0015
3	2330	0.743	0.003
3	2351	0.751	0.001
3	2382	0.761	0.001
3	2410	0.7705	0.0005
3	2449	0.782	0.002
3	2507	0.801	0.001
3	2509	0.8015	0.0015
3	2515	0.803	0.003
3	2546	0.8135	0.0035
3	2633	0.842	0.002
3	2666	0.8525	0.0025
3	2695	0.862	0.002
3	2699	0.863	0.003
3	2728	0.8725	0.0025
3	2732	0.8735	0.0035
3	2793	0.8925	0.0025
3	2847	0.9115	0.0015
3	2855	0.9135	0.0035
3	2879	0.922	0.002
3	2887	0.924	0.004
3	2907	0.931	0.001
3	2913	0.9325	0.0025
3	2941	0.9415	0.0015
3	2949	0.9435	0.0035
3	2951	0.944	0.004
3	2999	0.9605	0.0005
3	3001	0.961	0.001
3	3011	0.9635	0.0035
4	57	0.012	0.002
4	79	0.0205	0.0005
4	81	0.021	0.001
4	147	0.0415	0.0015
4	213	0.0625	0.0025
4	273	0.083	0.003
4	299	0.091	0.001
4	303	0.092	0.002
4	305	0.0925	0.0025
4	327	0.1005	0.0005
4	359	0.111	0.001
4	363	0.112	0.002
4	392	0.1215	0.0015
4	417	0.131	0.001
4	486	0.1525	0.0025
4	506	0.1605	0.0005
4	520	0.164	0.004
4	545	0.172	0.002
4	576	0.182	0.002
4	578	0.1825	0.0025
4	580	0.183	0.003
4	726	0.2305	0.0005
4	755	0.2405	0.0005
4	757	0.241	0.001
4	761	0.242	0.002
4	789	0.251	0.001
4	791	0.2515	0.0015
4	819	0.2615	0.0015
4	823	0.2625	0.0025
4	827	0.2635	0.0035
4	854	0.272	0.002
4	858	0.273	0.003
4	883	0.2815	0.0015
4	941	0.3005	0.0005
4	949	0.3025	0.0025
4	975	0.311	0.001
4	977	0.3115	0.0015
4	979	0.312	0.002
4	987	0.314	0.004
4	1006	0.3205	0.0005
4	1010	0.3215	0.0015
4	1014	0.3225	0.0025
4	1016	0.323	0.003
4	1043	0.332	0.002
4	1071	0.3415	0.0015
4	1133	0.361	0.001
4	1137	0.362	0.002
4	1227	0.392	0.002
4	1229	0.3925	0.0025
4	1255	0.401	0.001
4	1317	0.421	0.001
4	1329	0.424	0.004
4	1379	0.4405	0.0005
4	1387	0.4425	0.0025
4	1421	0.4535	0.0035
4	1423	0.454	0.004
4	1479	0.472	0.002
4	1485	0.4735	0.0035
4	1517	0.484	0.004
4	1547	0.4935	0.0035
4	1668	0.532	0.002
4	1692	0.5405	0.0005
4	1706	0.544	0.004
4	1726	0.551	0.001
4	1770	0.564	0.004
4	1791	0.571	0.001
4	1795	0.572	0.002
4	1799	0.573	0.003
4	1819	0.5805	0.0005
4	1829	0.583	0.003
4	1853	0.591	0.001
4	1857	0.592	0.002
4	1865	0.594	0.004
4	1887	0.6015	0.0015
4	1916	0.6105	0.0005
4	1924	0.6125	0.0025
4	1926	0.613	0.003
4	1957	0.623	0.003
4	1981	0.631	0.001
4	1987	0.6325	0.0025
4	2039	0.6505	0.0005
4	2047	0.6525	0.0025
4	2101	0.671	0.001
4	2109	0.673	0.003
4	2135	0.6815	0.0015
4	2171	0.6925	0.0025
4	2201	0.702	0.002
4	2234	0.712	0.002
4	2261	0.7205	0.0005
4	2263	0.721	0.001
4	2384	0.7615	0.0015
4	2414	0.7715	0.0015
4	2418	0.7725	0.0025
4	2485	0.793	0.003
4	2511	0.802	0.002
4	2542	0.8125	0.0025
4	2569	0.8215	0.0015
4	2602	0.832	0.002
4	2691	0.861	0.001
4	2693	0.8615	0.0015
4	2697	0.8625	0.0025
4	2724	0.8715	0.0015
4	2726	0.872	0.002
4	2843	0.9105	0.0005
4	2849	0.912	0.002
4	2881	0.9225	0.0025
4	2883	0.923	0.003
4	2905	0.9305	0.0005
4	2915	0.933	0.003
4	2943	0.942	0.002
4	2981	0.953	0.003
4	3013	0.964	0.004
4	3067	0.9815	0.0015
4	3104	0.993	0.003
4	3106	0.9935	0.0035
5	53	0.011	0.001
5	61	0.013	0.003
5	85	0.022	0.002
5	122	0.033	0.003
5	143	0.0405	0.0005
5	149	0.042	0.002
5	175	0.0505	0.0005
5	207	0.061	0.001
5	265	0.081	0.001
5	271	0.0825	0.0025
5	275	0.0835	0.0035
5	361	0.1115	0.0015
5	421	0.132	0.002
5	454	0.1425	0.0025
5	514	0.1625	0.0025
5	551	0.1735	0.0035
5	604	0.1915	0.0015
5	634	0.2005	0.0005
5	673	0.213	0.003
5	702	0.2225	0.0025
5	704	0.223	0.003
5	730	0.2315	0.0015
5	736	0.233	0.003
5	860	0.2735	0.0035
5	881	0.281	0.001
5	889	0.283	0.003
5	919	0.293	0.003
5	953	0.3035	0.0035
5	985	0.3135	0.0035
5	1037	0.3305	0.0005
5	1067	0.3405	0.0005
5	1069	0.341	0.001
5	1167	0.372	0.002
5	1191	0.381	0.001
5	1233	0.3935	0.0035
5	1289	0.411	0.001
5	1319	0.4215	0.0015
5	1358	0.433	0.003
5	1389	0.443	0.003
5	1409	0.4505	0.0005
5	1570	0.501	0.001
5	1572	0.5015	0.0015
5	1574	0.502	0.002
5	1576	0.5025	0.0025
5	1602	0.5115	0.0015
5	1604	0.512	0.002
5	1606	0.5125	0.0025
5	1608	0.513	0.003
5	1702	0.543	0.003
5	1756	0.5605	0.0005
5	1760	0.5615	0.0015
5	1793	0.5715	0.0015
5	1823	0.5815	0.0015
5	1827	0.5825	0.0025
5	1831	0.5835	0.0035
5	1885	0.601	0.001
5	1889	0.602	0.002
5	1953	0.622	0.002
5	1985	0.632	0.002
5	2009	0.6405	0.0005
5	2013	0.6415	0.0015
5	2019	0.643	0.003
5	2045	0.652	0.002
5	2073	0.662	0.002
5	2105	0.672	0.002
5	2107	0.6725	0.0025
5	2111	0.6735	0.0035
5	2131	0.6805	0.0005
5	2137	0.682	0.002
5	2141	0.683	0.003
5	2163	0.6905	0.0005
5	2203	0.7025	0.0025
5	2207	0.7035	0.0035
5	2236	0.7125	0.0025
5	2294	0.732	0.002
5	2355	0.752	0.002
5	2357	0.7525	0.0025
5	2359	0.753	0.003
5	2388	0.7625	0.0025
5	2416	0.772	0.002
5	2420	0.773	0.003
5	2424	0.774	0.004
5	2443	0.7805	0.0005
5	2453	0.783	0.003
5	2540	0.812	0.002
5	2606	0.833	0.003
5	2637	0.843	0.003
5	2670	0.8535	0.0035
5	2754	0.8815	0.0015
5	2785	0.8905	0.0005
5	2812	0.9005	0.0005
5	2816	0.9015	0.0015
5	2822	0.903	0.003
5	2824	0.9035	0.0035
5	2851	0.9125	0.0025
5	2875	0.921	0.001
5	2939	0.941	0.001
5	2945	0.9425	0.0025
5	2973	0.951	0.001
5	2975	0.9515	0.0015
5	2977	0.952	0.002
5	3034	0.971	0.001
5	3069	0.982	0.002
5	3102	0.9925	0.0025
6	663	0.2105	0.0005
6	787	0.2505	0.0005
6	815	0.2605	0.0005
6	1101	0.3505	0.0005
6	1442	0.4605	0.0005
6	1947	0.6205	0.0005
6	2288	0.7305	0.0005
6	2320	0.7405	0.0005
6	2475	0.7905	0.0005
6	2534	0.8105	0.0005
7	17	0	0
7	19	0.0005	0.0005
7	23	0.0015	0.0015
7	25	0.002	0.002
7	31	0.0035	0.0035
7	48	0.01	0
7	49	0.01	0
7	93	0.024	0.004
7	110	0.03	0
7	124	0.0335	0.0035
7	141	0.04	0
7	155	0.0435	0.0035
7	172	0.05	0
7	173	0.05	0
7	177	0.051	0.001
7	185	0.053	0.003
7	202	0.06	0
7	203	0.06	0
7	232	0.07	0
7	233	0.07	0
7	245	0.073	0.003
7	269	0.082	0.002
7	294	0.09	0
7	295	0.09	0
7	324	0.1	0
7	325	0.1	0
7	333	0.102	0.002
7	354	0.11	0
7	355	0.11	0
7	365	0.1125	0.0025
7	384	0.12	0
7	385	0.12	0
7	386	0.12	0
7	390	0.121	0.001
7	413	0.13	0
7	425	0.133	0.003
7	444	0.14	0
7	475	0.15	0
7	476	0.15	0
7	484	0.152	0.002
7	537	0.17	0
7	541	0.171	0.001
7	568	0.18	0
7	574	0.1815	0.0015
7	582	0.1835	0.0035
7	614	0.194	0.004
7	631	0.2	0
7	632	0.2	0
7	636	0.201	0.001
7	661	0.21	0
7	667	0.2115	0.0015
7	692	0.22	0
7	698	0.2215	0.0015
7	723	0.23	0
7	724	0.23	0
7	732	0.232	0.002
7	753	0.24	0
7	763	0.2425	0.0025
7	765	0.243	0.003
7	767	0.2435	0.0035
7	784	0.25	0
7	785	0.25	0
7	797	0.253	0.003
7	846	0.27	0
7	877	0.28	0
7	911	0.291	0.001
7	921	0.2935	0.0035
7	1004	0.32	0
7	1035	0.33	0
7	1075	0.3425	0.0025
7	1098	0.35	0
7	1099	0.35	0
7	1105	0.3515	0.0015
7	1128	0.36	0
7	1129	0.36	0
7	1131	0.3605	0.0005
7	1141	0.363	0.003
7	1158	0.37	0
7	1159	0.37	0
7	1161	0.3705	0.0005
7	1165	0.3715	0.0015
7	1171	0.373	0.003
7	1197	0.3825	0.0025
7	1203	0.384	0.004
7	1253	0.4005	0.0005
7	1284	0.41	0
7	1285	0.41	0
7	1291	0.4115	0.0015
7	1293	0.412	0.002
7	1346	0.43	0
7	1377	0.44	0
7	1381	0.441	0.001
7	1413	0.4515	0.0015
7	1440	0.46	0
7	1452	0.463	0.003
7	1454	0.4635	0.0035
7	1471	0.47	0
7	1477	0.4715	0.0015
7	1507	0.4815	0.0015
7	1535	0.4905	0.0005
7	1545	0.493	0.003
7	1566	0.5	0
7	1612	0.514	0.004
7	1629	0.52	0
7	1641	0.523	0.003
7	1660	0.53	0
7	1666	0.5315	0.0015
7	1674	0.5335	0.0035
7	1694	0.541	0.001
7	1724	0.5505	0.0005
7	1787	0.57	0
7	1797	0.5725	0.0025
7	1825	0.582	0.002
7	1855	0.5915	0.0015
7	1914	0.61	0
7	1918	0.611	0.001
7	1945	0.62	0
7	1955	0.6225	0.0025
7	1976	0.63	0
7	1977	0.63	0
7	1983	0.6315	0.0015
7	2006	0.64	0
7	2007	0.64	0
7	2015	0.642	0.002
7	2017	0.6425	0.0025
7	2036	0.65	0
7	2037	0.65	0
7	2043	0.6515	0.0015
7	2049	0.653	0.003
7	2067	0.6605	0.0005
7	2069	0.661	0.001
7	2079	0.6635	0.0035
7	2081	0.664	0.004
7	2099	0.6705	0.0005
7	2139	0.6825	0.0025
7	2167	0.6915	0.0015
7	2205	0.703	0.003
7	2226	0.71	0
7	2257	0.72	0
7	2258	0.72	0
7	2259	0.72	0
7	2269	0.7225	0.0025
7	2286	0.73	0
7	2290	0.731	0.001
7	2317	0.74	0
7	2318	0.74	0
7	2326	0.742	0.002
7	2328	0.7425	0.0025
7	2347	0.75	0
7	2349	0.7505	0.0005
7	2378	0.76	0
7	2390	0.763	0.003
7	2441	0.78	0
7	2455	0.7835	0.0035
7	2472	0.79	0
7	2473	0.79	0
7	2483	0.7925	0.0025
7	2502	0.8	0
7	2503	0.8	0
7	2532	0.81	0
7	2538	0.8115	0.0015
7	2563	0.82	0
7	2594	0.83	0
7	2625	0.84	0
7	2656	0.85	0
7	2662	0.8515	0.0015
7	2664	0.852	0.002
7	2687	0.86	0
7	2718	0.87	0
7	2720	0.8705	0.0005
7	2722	0.871	0.001
7	2730	0.873	0.003
7	2750	0.8805	0.0005
7	2781	0.89	0
7	2782	0.89	0
7	2783	0.89	0
7	2810	0.9	0
7	2820	0.9025	0.0025
7	2841	0.91	0
7	2911	0.932	0.002
7	2919	0.934	0.004
7	2937	0.9405	0.0005
7	2947	0.943	0.003
7	2968	0.95	0
7	2969	0.95	0
7	2979	0.9525	0.0025
7	3030	0.97	0
7	3032	0.9705	0.0005
7	3061	0.98	0
7	3073	0.983	0.003
7	3092	0.99	0
7	3096	0.991	0.001
7	3098	0.9915	0.0015
8	0	0	0
8	10	0	1
8	11	0	2
8	12	0	3
8	14	0	4
8	15	0	5
8	16	0	6
8	18	0.0005	5
8	20	0.001	4
8	22	0.0015	3
8	24	0.002	2
8	26	0.0025	1
8	28	0.003	0
8	41	0.01	1
8	42	0.01	2
8	43	0.01	3
8	44	0.01	4
8	45	0.01	5
8	50	0.0105	4
8	52	0.011	3
8	54	0.0115	2
8	56	0.012	1
8	58	0.0125	0
8	71	0.02	1
8	72	0.02	2
8	73	0.02	3
8	74	0.02	4
8	75	0.02	5
8	76	0.02	6
8	77	0.02	7
8	78	0.0205	6
8	80	0.021	5
8	82	0.0215	4
8	84	0.022	3
8	86	0.0225	2
8	88	0.023	1
8	90	0.0235	0
8	103	0.03	1
8	104	0.03	2
8	105	0.03	3
8	107	0.03	4
8	108	0.03	5
8	109	0.03	6
8	111	0.0305	5
8	113	0.031	4
8	115	0.0315	3
8	117	0.032	2
8	119	0.0325	1
8	121	0.033	0
8	134	0.04	1
8	135	0.04	2
8	136	0.04	3
8	137	0.04	4
8	139	0.04	5
8	140	0.04	6
8	142	0.0405	5
8	144	0.041	4
8	146	0.0415	3
8	148	0.042	2
8	150	0.0425	1
8	152	0.043	0
8	165	0.05	1
8	166	0.05	2
8	168	0.05	3
8	169	0.05	4
8	170	0.05	5
8	174	0.0505	4
8	176	0.051	3
8	178	0.0515	2
8	180	0.052	1
8	182	0.0525	0
8	196	0.06	1
8	197	0.06	2
8	198	0.06	3
8	199	0.06	4
8	201	0.06	5
8	204	0.0605	4
8	206	0.061	3
8	208	0.0615	2
8	210	0.062	1
8	212	0.0625	0
8	225	0.07	1
8	226	0.07	2
8	227	0.07	3
8	228	0.07	4
8	231	0.07	5
8	234	0.0705	4
8	236	0.071	3
8	238	0.0715	2
8	240	0.072	1
8	242	0.0725	0
8	255	0.08	1
8	256	0.08	2
8	257	0.08	3
8	258	0.08	4
8	259	0.08	5
8	260	0.08	6
8	261	0.08	7
8	262	0.0805	6
8	264	0.081	5
8	266	0.0815	4
8	268	0.082	3
8	270	0.0825	2
8	272	0.083	1
8	274	0.0835	0
8	289	0.09	1
8	290	0.09	2
8	291	0.09	3
8	292	0.09	4
8	293	0.09	5
8	296	0.0905	4
8	298	0.091	3
8	300	0.0915	2
8	302	0.092	1
8	304	0.0925	0
8	317	0.1	1
8	318	0.1	2
8	320	0.1	3
8	321	0.1	4
8	322	0.1	5
8	326	0.1005	4
8	328	0.101	3
8	330	0.1015	2
8	332	0.102	1
8	334	0.1025	0
8	347	0.11	1
8	349	0.11	2
8	350	0.11	3
8	351	0.11	4
8	352	0.11	5
8	356	0.1105	4
8	358	0.111	3
8	360	0.1115	2
8	362	0.112	1
8	364	0.1125	0
8	377	0.12	1
8	378	0.12	2
8	380	0.12	3
8	381	0.12	4
8	387	0.1205	3
8	389	0.121	2
8	391	0.1215	1
8	393	0.122	0
8	407	0.13	1
8	408	0.13	2
8	409	0.13	3
8	410	0.13	4
8	411	0.13	5
8	412	0.13	6
8	414	0.1305	5
8	416	0.131	4
8	418	0.1315	3
8	420	0.132	2
8	422	0.1325	1
8	424	0.133	0
8	437	0.14	1
8	438	0.14	2
8	439	0.14	3
8	440	0.14	4
8	441	0.14	5
8	442	0.14	6
8	445	0.1405	5
8	447	0.141	4
8	449	0.1415	3
8	451	0.142	2
8	453	0.1425	1
8	455	0.143	0
8	468	0.15	1
8	469	0.15	2
8	470	0.15	3
8	473	0.15	4
8	474	0.15	5
8	477	0.1505	4
8	479	0.151	3
8	481	0.1515	2
8	483	0.152	1
8	485	0.1525	0
8	498	0.16	1
8	499	0.16	2
8	500	0.16	3
8	501	0.16	4
8	502	0.16	5
8	503	0.16	6
8	504	0.16	7
8	505	0.1605	6
8	507	0.161	5
8	509	0.1615	4
8	511	0.162	3
8	513	0.1625	2
8	515	0.163	1
8	517	0.1635	0
8	530	0.17	1
8	531	0.17	2
8	532	0.17	3
8	533	0.17	4
8	535	0.17	5
8	536	0.17	6
8	538	0.1705	5
8	540	0.171	4
8	542	0.1715	3
8	544	0.172	2
8	546	0.1725	1
8	548	0.173	0
8	561	0.18	1
8	562	0.18	2
8	563	0.18	3
8	564	0.18	4
8	566	0.18	5
8	567	0.18	6
8	569	0.1805	5
8	571	0.181	4
8	573	0.1815	3
8	575	0.182	2
8	577	0.1825	1
8	579	0.183	0
8	592	0.19	1
8	593	0.19	2
8	594	0.19	3
8	595	0.19	4
8	596	0.19	5
8	597	0.19	6
8	598	0.19	7
8	599	0.1905	6
8	601	0.191	5
8	603	0.1915	4
8	605	0.192	3
8	607	0.1925	2
8	609	0.193	1
8	611	0.1935	0
8	624	0.2	1
8	625	0.2	2
8	626	0.2	3
8	628	0.2	4
8	630	0.2	5
8	633	0.2005	4
8	635	0.201	3
8	637	0.2015	2
8	639	0.202	1
8	641	0.2025	0
8	654	0.21	1
8	655	0.21	2
8	656	0.21	3
8	657	0.21	4
8	659	0.21	5
8	660	0.21	6
8	662	0.2105	5
8	664	0.211	4
8	666	0.2115	3
8	668	0.212	2
8	670	0.2125	1
8	672	0.213	0
8	685	0.22	1
8	687	0.22	2
8	688	0.22	3
8	689	0.22	4
8	690	0.22	5
8	691	0.22	6
8	693	0.2205	5
8	695	0.221	4
8	697	0.2215	3
8	699	0.222	2
8	701	0.2225	1
8	703	0.223	0
8	716	0.23	1
8	717	0.23	2
8	718	0.23	3
8	719	0.23	4
8	721	0.23	5
8	725	0.2305	4
8	727	0.231	3
8	729	0.2315	2
8	731	0.232	1
8	733	0.2325	0
8	746	0.24	1
8	747	0.24	2
8	748	0.24	3
8	749	0.24	4
8	751	0.24	5
8	752	0.24	6
8	754	0.2405	5
8	756	0.241	4
8	758	0.2415	3
8	760	0.242	2
8	762	0.2425	1
8	764	0.243	0
8	777	0.25	1
8	780	0.25	2
8	781	0.25	3
8	782	0.25	4
8	783	0.25	5
8	786	0.2505	4
8	788	0.251	3
8	790	0.2515	2
8	792	0.252	1
8	794	0.2525	0
8	807	0.26	1
8	808	0.26	2
8	809	0.26	3
8	810	0.26	4
8	811	0.26	5
8	812	0.26	6
8	813	0.26	7
8	814	0.2605	6
8	816	0.261	5
8	818	0.2615	4
8	820	0.262	3
8	822	0.2625	2
8	824	0.263	1
8	826	0.2635	0
8	839	0.27	1
8	840	0.27	2
8	841	0.27	3
8	842	0.27	4
8	843	0.27	5
8	844	0.27	6
8	847	0.2705	5
8	849	0.271	4
8	851	0.2715	3
8	853	0.272	2
8	855	0.2725	1
8	857	0.273	0
8	870	0.28	1
8	871	0.28	2
8	872	0.28	3
8	873	0.28	4
8	874	0.28	5
8	876	0.28	6
8	878	0.2805	5
8	880	0.281	4
8	882	0.2815	3
8	884	0.282	2
8	886	0.2825	1
8	888	0.283	0
8	901	0.29	1
8	902	0.29	2
8	903	0.29	3
8	904	0.29	4
8	905	0.29	5
8	906	0.29	6
8	907	0.29	7
8	908	0.2905	6
8	910	0.291	5
8	912	0.2915	4
8	914	0.292	3
8	916	0.2925	2
8	918	0.293	1
8	920	0.2935	0
8	933	0.3	1
8	934	0.3	2
8	935	0.3	3
8	936	0.3	4
8	937	0.3	5
8	938	0.3	6
8	939	0.3	7
8	940	0.3005	6
8	942	0.301	5
8	944	0.3015	4
8	946	0.302	3
8	948	0.3025	2
8	950	0.303	1
8	952	0.3035	0
8	965	0.31	1
8	966	0.31	2
8	967	0.31	3
8	968	0.31	4
8	969	0.31	5
8	970	0.31	6
8	971	0.31	7
8	972	0.3105	6
8	974	0.311	5
8	976	0.3115	4
8	978	0.312	3
8	980	0.3125	2
8	982	0.313	1
8	984	0.3135	0
8	997	0.32	1
8	998	0.32	2
8	999	0.32	3
8	1001	0.32	4
8	1002	0.32	5
8	1003	0.32	6
8	1005	0.3205	5
8	1007	0.321	4
8	1009	0.3215	3
8	1011	0.322	2
8	1013	0.3225	1
8	1015	0.323	0
8	1028	0.33	1
8	1029	0.33	2
8	1031	0.33	3
8	1032	0.33	4
8	1033	0.33	5
8	1034	0.33	6
8	1036	0.3305	5
8	1038	0.331	4
8	1040	0.3315	3
8	1042	0.332	2
8	1044	0.3325	1
8	1046	0.333	0
8	1059	0.34	1
8	1060	0.34	2
8	1061	0.34	3
8	1062	0.34	4
8	1063	0.34	5
8	1064	0.34	6
8	1065	0.34	7
8	1066	0.3405	6
8	1068	0.341	5
8	1070	0.3415	4
8	1072	0.342	3
8	1074	0.3425	2
8	1076	0.343	1
8	1078	0.3435	0
8	1091	0.35	1
8	1092	0.35	2
8	1093	0.35	3
8	1094	0.35	4
8	1095	0.35	5
8	1100	0.3505	4
8	1102	0.351	3
8	1104	0.3515	2
8	1106	0.352	1
8	1108	0.3525	0
8	1121	0.36	1
8	1122	0.36	2
8	1123	0.36	3
8	1124	0.36	4
8	1125	0.36	5
8	1130	0.3605	4
8	1132	0.361	3
8	1134	0.3615	2
8	1136	0.362	1
8	1138	0.3625	0
8	1151	0.37	1
8	1152	0.37	2
8	1153	0.37	3
8	1154	0.37	4
8	1157	0.37	5
8	1160	0.3705	4
8	1162	0.371	3
8	1164	0.3715	2
8	1166	0.372	1
8	1168	0.3725	0
8	1181	0.38	1
8	1182	0.38	2
8	1183	0.38	3
8	1184	0.38	4
8	1185	0.38	5
8	1186	0.38	6
8	1187	0.38	7
8	1188	0.3805	6
8	1190	0.381	5
8	1192	0.3815	4
8	1194	0.382	3
8	1196	0.3825	2
8	1198	0.383	1
8	1200	0.3835	0
8	1213	0.39	1
8	1214	0.39	2
8	1215	0.39	3
8	1216	0.39	4
8	1217	0.39	5
8	1218	0.39	6
8	1219	0.39	7
8	1220	0.3905	6
8	1222	0.391	5
8	1224	0.3915	4
8	1226	0.392	3
8	1228	0.3925	2
8	1230	0.393	1
8	1232	0.3935	0
8	1245	0.4	1
8	1246	0.4	2
8	1247	0.4	3
8	1248	0.4	4
8	1249	0.4	5
8	1250	0.4	6
8	1251	0.4	7
8	1252	0.4005	6
8	1254	0.401	5
8	1256	0.4015	4
8	1258	0.402	3
8	1260	0.4025	2
8	1262	0.403	1
8	1264	0.4035	0
8	1279	0.41	1
8	1280	0.41	2
8	1281	0.41	3
8	1282	0.41	4
8	1283	0.41	5
8	1286	0.4105	4
8	1288	0.411	3
8	1290	0.4115	2
8	1292	0.412	1
8	1294	0.4125	0
8	1307	0.42	1
8	1308	0.42	2
8	1309	0.42	3
8	1310	0.42	4
8	1311	0.42	5
8	1312	0.42	6
8	1313	0.42	7
8	1314	0.4205	6
8	1316	0.421	5
8	1318	0.4215	4
8	1320	0.422	3
8	1322	0.4225	2
8	1324	0.423	1
8	1326	0.4235	0
8	1339	0.43	1
8	1340	0.43	2
8	1341	0.43	3
8	1342	0.43	4
8	1344	0.43	5
8	1345	0.43	6
8	1347	0.4305	5
8	1349	0.431	4
8	1351	0.4315	3
8	1353	0.432	2
8	1355	0.4325	1
8	1357	0.433	0
8	1370	0.44	1
8	1371	0.44	2
8	1372	0.44	3
8	1374	0.44	4
8	1375	0.44	5
8	1376	0.44	6
8	1378	0.4405	5
8	1380	0.441	4
8	1382	0.4415	3
8	1384	0.442	2
8	1386	0.4425	1
8	1388	0.443	0
8	1401	0.45	1
8	1402	0.45	2
8	1403	0.45	3
8	1404	0.45	4
8	1405	0.45	5
8	1406	0.45	6
8	1407	0.45	7
8	1408	0.4505	6
8	1410	0.451	5
8	1412	0.4515	4
8	1414	0.452	3
8	1416	0.4525	2
8	1418	0.453	1
8	1420	0.4535	0
8	1433	0.46	1
8	1435	0.46	2
8	1436	0.46	3
8	1437	0.46	4
8	1438	0.46	5
8	1439	0.46	6
8	1441	0.4605	5
8	1443	0.461	4
8	1445	0.4615	3
8	1447	0.462	2
8	1449	0.4625	1
8	1451	0.463	0
8	1464	0.47	1
8	1465	0.47	2
8	1466	0.47	3
8	1467	0.47	4
8	1468	0.47	5
8	1470	0.47	6
8	1472	0.4705	5
8	1474	0.471	4
8	1476	0.4715	3
8	1478	0.472	2
8	1480	0.4725	1
8	1482	0.473	0
8	1495	0.48	1
8	1496	0.48	2
8	1497	0.48	3
8	1498	0.48	4
8	1499	0.48	5
8	1500	0.48	6
8	1501	0.48	7
8	1502	0.4805	6
8	1504	0.481	5
8	1506	0.4815	4
8	1508	0.482	3
8	1510	0.4825	2
8	1512	0.483	1
8	1514	0.4835	0
8	1527	0.49	1
8	1528	0.49	2
8	1529	0.49	3
8	1530	0.49	4
8	1531	0.49	5
8	1532	0.49	6
8	1533	0.49	7
8	1534	0.4905	6
8	1536	0.491	5
8	1538	0.4915	4
8	1540	0.492	3
8	1542	0.4925	2
8	1544	0.493	1
8	1546	0.4935	0
8	1559	0.5	1
8	1560	0.5	2
8	1561	0.5	3
8	1562	0.5	4
8	1563	0.5	5
8	1564	0.5	6
8	1567	0.5005	5
8	1569	0.501	4
8	1571	0.5015	3
8	1573	0.502	2
8	1575	0.5025	1
8	1577	0.503	0
8	1590	0.51	1
8	1591	0.51	2
8	1592	0.51	3
8	1593	0.51	4
8	1594	0.51	5
8	1595	0.51	6
8	1596	0.51	7
8	1597	0.5105	6
8	1599	0.511	5
8	1601	0.5115	4
8	1603	0.512	3
8	1605	0.5125	2
8	1607	0.513	1
8	1609	0.5135	0
8	1622	0.52	1
8	1624	0.52	2
8	1625	0.52	3
8	1626	0.52	4
8	1627	0.52	5
8	1628	0.52	6
8	1630	0.5205	5
8	1632	0.521	4
8	1634	0.5215	3
8	1636	0.522	2
8	1638	0.5225	1
8	1640	0.523	0
8	1654	0.53	1
8	1655	0.53	2
8	1656	0.53	3
8	1657	0.53	4
8	1658	0.53	5
8	1659	0.53	6
8	1661	0.5305	5
8	1663	0.531	4
8	1665	0.5315	3
8	1667	0.532	2
8	1669	0.5325	1
8	1671	0.533	0
8	1684	0.54	1
8	1685	0.54	2
8	1686	0.54	3
8	1687	0.54	4
8	1688	0.54	5
8	1689	0.54	6
8	1690	0.54	7
8	1691	0.5405	6
8	1693	0.541	5
8	1695	0.5415	4
8	1697	0.542	3
8	1699	0.5425	2
8	1701	0.543	1
8	1703	0.5435	0
8	1716	0.55	1
8	1717	0.55	2
8	1718	0.55	3
8	1719	0.55	4
8	1720	0.55	5
8	1721	0.55	6
8	1722	0.55	7
8	1723	0.5505	6
8	1725	0.551	5
8	1727	0.5515	4
8	1729	0.552	3
8	1731	0.5525	2
8	1733	0.553	1
8	1735	0.5535	0
8	1748	0.56	1
8	1749	0.56	2
8	1750	0.56	3
8	1751	0.56	4
8	1752	0.56	5
8	1753	0.56	6
8	1754	0.56	7
8	1755	0.5605	6
8	1757	0.561	5
8	1759	0.5615	4
8	1761	0.562	3
8	1763	0.5625	2
8	1765	0.563	1
8	1767	0.5635	0
8	1780	0.57	1
8	1781	0.57	2
8	1783	0.57	3
8	1784	0.57	4
8	1785	0.57	5
8	1786	0.57	6
8	1788	0.5705	5
8	1790	0.571	4
8	1792	0.5715	3
8	1794	0.572	2
8	1796	0.5725	1
8	1798	0.573	0
8	1811	0.58	1
8	1812	0.58	2
8	1813	0.58	3
8	1814	0.58	4
8	1815	0.58	5
8	1816	0.58	6
8	1817	0.58	7
8	1818	0.5805	6
8	1820	0.581	5
8	1822	0.5815	4
8	1824	0.582	3
8	1826	0.5825	2
8	1828	0.583	1
8	1830	0.5835	0
8	1843	0.59	1
8	1844	0.59	2
8	1845	0.59	3
8	1846	0.59	4
8	1847	0.59	5
8	1848	0.59	6
8	1849	0.59	7
8	1850	0.5905	6
8	1852	0.591	5
8	1854	0.5915	4
8	1856	0.592	3
8	1858	0.5925	2
8	1860	0.593	1
8	1862	0.5935	0
8	1875	0.6	1
8	1876	0.6	2
8	1877	0.6	3
8	1878	0.6	4
8	1879	0.6	5
8	1880	0.6	6
8	1881	0.6	7
8	1882	0.6005	6
8	1884	0.601	5
8	1886	0.6015	4
8	1888	0.602	3
8	1890	0.6025	2
8	1892	0.603	1
8	1894	0.6035	0
8	1907	0.61	1
8	1908	0.61	2
8	1909	0.61	3
8	1910	0.61	4
8	1912	0.61	5
8	1913	0.61	6
8	1915	0.6105	5
8	1917	0.611	4
8	1919	0.6115	3
8	1921	0.612	2
8	1923	0.6125	1
8	1925	0.613	0
8	1938	0.62	1
8	1939	0.62	2
8	1940	0.62	3
8	1941	0.62	4
8	1942	0.62	5
8	1944	0.62	6
8	1946	0.6205	5
8	1948	0.621	4
8	1950	0.6215	3
8	1952	0.622	2
8	1954	0.6225	1
8	1956	0.623	0
8	1969	0.63	1
8	1970	0.63	2
8	1971	0.63	3
8	1972	0.63	4
8	1974	0.63	5
8	1978	0.6305	4
8	1980	0.631	3
8	1982	0.6315	2
8	1984	0.632	1
8	1986	0.6325	0
8	2000	0.64	1
8	2001	0.64	2
8	2003	0.64	3
8	2004	0.64	4
8	2005	0.64	5
8	2008	0.6405	4
8	2010	0.641	3
8	2012	0.6415	2
8	2014	0.642	1
8	2016	0.6425	0
8	2031	0.65	1
8	2032	0.65	2
8	2033	0.65	3
8	2034	0.65	4
8	2035	0.65	5
8	2038	0.6505	4
8	2040	0.651	3
8	2042	0.6515	2
8	2044	0.652	1
8	2046	0.6525	0
8	2059	0.66	1
8	2060	0.66	2
8	2061	0.66	3
8	2062	0.66	4
8	2063	0.66	5
8	2064	0.66	6
8	2065	0.66	7
8	2066	0.6605	6
8	2068	0.661	5
8	2070	0.6615	4
8	2072	0.662	3
8	2074	0.6625	2
8	2076	0.663	1
8	2078	0.6635	0
8	2091	0.67	1
8	2092	0.67	2
8	2093	0.67	3
8	2094	0.67	4
8	2095	0.67	5
8	2096	0.67	6
8	2097	0.67	7
8	2098	0.6705	6
8	2100	0.671	5
8	2102	0.6715	4
8	2104	0.672	3
8	2106	0.6725	2
8	2108	0.673	1
8	2110	0.6735	0
8	2123	0.68	1
8	2124	0.68	2
8	2125	0.68	3
8	2126	0.68	4
8	2127	0.68	5
8	2128	0.68	6
8	2129	0.68	7
8	2130	0.6805	6
8	2132	0.681	5
8	2134	0.6815	4
8	2136	0.682	3
8	2138	0.6825	2
8	2140	0.683	1
8	2142	0.6835	0
8	2155	0.69	1
8	2156	0.69	2
8	2157	0.69	3
8	2158	0.69	4
8	2159	0.69	5
8	2160	0.69	6
8	2161	0.69	7
8	2162	0.6905	6
8	2164	0.691	5
8	2166	0.6915	4
8	2168	0.692	3
8	2170	0.6925	2
8	2172	0.693	1
8	2174	0.6935	0
8	2187	0.7	1
8	2188	0.7	2
8	2189	0.7	3
8	2190	0.7	4
8	2191	0.7	5
8	2192	0.7	6
8	2193	0.7	7
8	2194	0.7005	6
8	2196	0.701	5
8	2198	0.7015	4
8	2200	0.702	3
8	2202	0.7025	2
8	2204	0.703	1
8	2206	0.7035	0
8	2220	0.71	1
8	2221	0.71	2
8	2222	0.71	3
8	2223	0.71	4
8	2224	0.71	5
8	2225	0.71	6
8	2227	0.7105	5
8	2229	0.711	4
8	2231	0.7115	3
8	2233	0.712	2
8	2235	0.7125	1
8	2237	0.713	0
8	2251	0.72	1
8	2252	0.72	2
8	2253	0.72	3
8	2254	0.72	4
8	2260	0.7205	3
8	2262	0.721	2
8	2264	0.7215	1
8	2266	0.722	0
8	2279	0.73	1
8	2280	0.73	2
8	2281	0.73	3
8	2282	0.73	4
8	2283	0.73	5
8	2285	0.73	6
8	2287	0.7305	5
8	2289	0.731	4
8	2291	0.7315	3
8	2293	0.732	2
8	2295	0.7325	1
8	2297	0.733	0
8	2311	0.74	1
8	2312	0.74	2
8	2313	0.74	3
8	2314	0.74	4
8	2316	0.74	5
8	2319	0.7405	4
8	2321	0.741	3
8	2323	0.7415	2
8	2325	0.742	1
8	2327	0.7425	0
8	2341	0.75	1
8	2342	0.75	2
8	2343	0.75	3
8	2344	0.75	4
8	2345	0.75	5
8	2346	0.75	6
8	2348	0.7505	5