file 47664 1329747991                                           
version 2
run FifoWRS-0-20120220-15:26:26-26934
attr configname FifoWRS
attr datetime 20120220-15:26:26
attr experiment FifoWRS
attr inifile omnetpp.ini
attr iterationvars ""
attr iterationvars2 $repetition=0
attr measurement ""
attr network FifoNetWRS
attr processid 26934
attr repetition 0
attr replication #0
attr resultdir results
attr runnumber 0
attr seedset 0

vector 8  FifoNetWRS.wrs  qlen:vector  ETV
attr interpolationmode  sample-hold
attr title  "queue length, vector"
vector 9  FifoNetWRS.wrs  queueingTime:vector  ETV
attr interpolationmode  none
attr title  "queueing time at dequeue, vector"
attr unit  s
vector 7  FifoNetWRS.sink7  lifetime:vector  ETV
attr interpolationmode  none
attr title  "lifetime of arrived jobs, vector"
attr unit  s
vector 2  FifoNetWRS.sink2  lifetime:vector  ETV
attr interpolationmode  none
attr title  "lifetime of arrived jobs, vector"
attr unit  s
vector 1  FifoNetWRS.sink1  lifetime:vector  ETV
attr interpolationmode  none
attr title  "lifetime of arrived jobs, vector"
attr unit  s
vector 3  FifoNetWRS.sink3  lifetime:vector  ETV
attr interpolationmode  none
attr title  "lifetime of arrived jobs, vector"
attr unit  s
vector 5  FifoNetWRS.sink5  lifetime:vector  ETV
attr interpolationmode  none
attr title  "lifetime of arrived jobs, vector"
attr unit  s
vector 4  FifoNetWRS.sink4  lifetime:vector  ETV
attr interpolationmode  none
attr title  "lifetime of arrived jobs, vector"
attr unit  s
vector 0  FifoNetWRS.sink0  lifetime:vector  ETV
attr interpolationmode  none
attr title  "lifetime of arrived jobs, vector"
attr unit  s
vector 6  FifoNetWRS.sink6  lifetime:vector  ETV
attr interpolationmode  none
attr title  "lifetime of arrived jobs, vector"
attr unit  s
0	1726 1681 87 3100 0.0225 0.992 85 0.0005 0.004 0.172 0.0004305
1	3407 2106 27 3075 0.0025 0.9835 107 0.0005 0.004 0.222 0.0005815
2	5513 1758 21 3094 0.001 0.9905 89 0.0005 0.004 0.18 0.000465
3	7271 1921 29 3011 0.003 0.9635 97 0.0005 0.004 0.209 0.0005685
4	9192 2249 57 3106 0.012 0.9935 115 0.0005 0.004 0.2305 0.00058225
5	11441 2048 53 3102 0.011 0.9925 104 0.0005 0.004 0.214 0.000537
6	13489 207 663 2534 0.2105 0.8105 10 0.0005 0.0005 0.005 2.5e-06
7	13696 3219 17 3098 0 0.9915 193 0 0.004 0.207 0.0005435
8	16915 17427 0 3103 0 0.993 1213 0 7 3740 15842
9	34342 13322 9 3103 0 0.993 706 0 0.0035 1.0865 0.00244775
