version 2
run FifoWRS-0-20120220-16:26:33-7288
attr configname FifoWRS
attr datetime 20120220-16:26:33
attr experiment FifoWRS
attr inifile omnetpp.ini
attr iterationvars ""
attr iterationvars2 $repetition=0
attr measurement ""
attr network FifoNetWRS
attr processid 7288
attr repetition 0
attr replication #0
attr resultdir results
attr runnumber 0
attr seedset 0

vector 1  FifoNetWRS.wrs  qlen:vector  ETV
attr interpolationmode  sample-hold
attr title  "queue length, vector"
vector 3  FifoNetWRS.wrs1  qlen:vector  ETV
attr interpolationmode  sample-hold
attr title  "queue length, vector"
vector 2  FifoNetWRS.wrs  queueingTime:vector  ETV
attr interpolationmode  none
attr title  "queueing time at dequeue, vector"
attr unit  s
vector 0  FifoNetWRS.sink0  lifetime:vector  ETV
attr interpolationmode  none
attr title  "lifetime of arrived jobs, vector"
attr unit  s
0	26	0.0005	0.0005
0	28	0.001	0.001
0	30	0.0015	0.0015
0	32	0.002	0.002
0	34	0.0025	0.0025
0	36	0.003	0.003
0	38	0.0035	0.0035
0	40	0.004	0.004
0	66	0.0105	0.0005
0	68	0.011	0.001
0	70	0.0115	0.0015
0	72	0.012	0.002
0	74	0.0125	0.0025
0	76	0.013	0.003
0	78	0.0135	0.0035
0	80	0.014	0.004
0	106	0.0205	0.0005
0	108	0.021	0.001
0	110	0.0215	0.0015
0	112	0.022	0.002
0	114	0.0225	0.0025
0	116	0.023	0.003
0	118	0.0235	0.0035
0	120	0.024	0.004
0	146	0.0305	0.0005
0	148	0.031	0.001
0	150	0.0315	0.0015
0	152	0.032	0.002
0	154	0.0325	0.0025
0	156	0.033	0.003
0	158	0.0335	0.0035
0	160	0.034	0.004
0	186	0.0405	0.0005
0	188	0.041	0.001
0	190	0.0415	0.0015
0	192	0.042	0.002
0	194	0.0425	0.0025
0	196	0.043	0.003
0	198	0.0435	0.0035
0	200	0.044	0.004
0	226	0.0505	0.0005
0	228	0.051	0.001
0	230	0.0515	0.0015
0	232	0.052	0.002
0	234	0.0525	0.0025
0	236	0.053	0.003
0	238	0.0535	0.0035
0	240	0.054	0.004
0	266	0.0605	0.0005
0	268	0.061	0.001
0	270	0.0615	0.0015
0	272	0.062	0.002
0	274	0.0625	0.0025
0	276	0.063	0.003
0	278	0.0635	0.0035
0	280	0.064	0.004
0	306	0.0705	0.0005
0	308	0.071	0.001
0	310	0.0715	0.0015
0	312	0.072	0.002
0	314	0.0725	0.0025
0	316	0.073	0.003
0	318	0.0735	0.0035
0	320	0.074	0.004
0	346	0.0805	0.0005
0	348	0.081	0.001
0	350	0.0815	0.0015
0	352	0.082	0.002
0	354	0.0825	0.0025
0	356	0.083	0.003
0	358	0.0835	0.0035
0	360	0.084	0.004
0	386	0.0905	0.0005
0	388	0.091	0.001
0	390	0.0915	0.0015
0	392	0.092	0.002
0	394	0.0925	0.0025
0	396	0.093	0.003
0	398	0.0935	0.0035
0	400	0.094	0.004
0	426	0.1005	0.0005
0	428	0.101	0.001
0	430	0.1015	0.0015
0	432	0.102	0.002
0	434	0.1025	0.0025
0	436	0.103	0.003
0	438	0.1035	0.0035
0	440	0.104	0.004
0	466	0.1105	0.0005
0	468	0.111	0.001
0	470	0.1115	0.0015
0	472	0.112	0.002
0	474	0.1125	0.0025
0	476	0.113	0.003
0	478	0.1135	0.0035
0	480	0.114	0.004
0	506	0.1205	0.0005
0	508	0.121	0.001
0	510	0.1215	0.0015
0	512	0.122	0.002
0	514	0.1225	0.0025
0	516	0.123	0.003
0	518	0.1235	0.0035
0	520	0.124	0.004
0	546	0.1305	0.0005
0	548	0.131	0.001
0	550	0.1315	0.0015
0	552	0.132	0.002
0	554	0.1325	0.0025
0	556	0.133	0.003
0	558	0.1335	0.0035
0	560	0.134	0.004
0	586	0.1405	0.0005
0	588	0.141	0.001
0	590	0.1415	0.0015
0	592	0.142	0.002
0	594	0.1425	0.0025
0	596	0.143	0.003
0	598	0.1435	0.0035
0	600	0.144	0.004
0	626	0.1505	0.0005
0	628	0.151	0.001
0	630	0.1515	0.0015
0	632	0.152	0.002
0	634	0.1525	0.0025
0	636	0.153	0.003
0	638	0.1535	0.0035
0	640	0.154	0.004
0	666	0.1605	0.0005
0	668	0.161	0.001
0	670	0.1615	0.0015
0	672	0.162	0.002
0	674	0.1625	0.0025
0	676	0.163	0.003
0	678	0.1635	0.0035
0	680	0.164	0.004
0	706	0.1705	0.0005
0	708	0.171	0.001
0	710	0.1715	0.0015
0	712	0.172	0.002
0	714	0.1725	0.0025
0	716	0.173	0.003
0	718	0.1735	0.0035
0	720	0.174	0.004
0	746	0.1805	0.0005
0	748	0.181	0.001
0	750	0.1815	0.0015
0	752	0.182	0.002
0	754	0.1825	0.0025
0	756	0.183	0.003
0	758	0.1835	0.0035
0	760	0.184	0.004
0	786	0.1905	0.0005
0	788	0.191	0.001
0	790	0.1915	0.0015
0	792	0.192	0.002
0	794	0.1925	0.0025
0	796	0.193	0.003
0	798	0.1935	0.0035
0	800	0.194	0.004
0	826	0.2005	0.0005
0	828	0.201	0.001
0	830	0.2015	0.0015
0	832	0.202	0.002
0	834	0.2025	0.0025
0	836	0.203	0.003
0	838	0.2035	0.0035
0	840	0.204	0.004
0	866	0.2105	0.0005
0	868	0.211	0.001
0	870	0.2115	0.0015
0	872	0.212	0.002
0	874	0.2125	0.0025
0	876	0.213	0.003
0	878	0.2135	0.0035
0	880	0.214	0.004
0	906	0.2205	0.0005
0	908	0.221	0.001
0	910	0.2215	0.0015
0	912	0.222	0.002
0	914	0.2225	0.0025
0	916	0.223	0.003
0	918	0.2235	0.0035
0	920	0.224	0.004
0	946	0.2305	0.0005
0	948	0.231	0.001
0	950	0.2315	0.0015
0	952	0.232	0.002
0	954	0.2325	0.0025
0	956	0.233	0.003
0	958	0.2335	0.0035
0	960	0.234	0.004
0	986	0.2405	0.0005
0	988	0.241	0.001
0	990	0.2415	0.0015
0	992	0.242	0.002
0	994	0.2425	0.0025
0	996	0.243	0.003
0	998	0.2435	0.0035
0	1000	0.244	0.004
0	1026	0.2505	0.0005
0	1028	0.251	0.001
0	1030	0.2515	0.0015
0	1032	0.252	0.002
0	1034	0.2525	0.0025
0	1036	0.253	0.003
0	1038	0.2535	0.0035
0	1040	0.254	0.004
0	1066	0.2605	0.0005
0	1068	0.261	0.001
0	1070	0.2615	0.0015
0	1072	0.262	0.002
0	1074	0.2625	0.0025
0	1076	0.263	0.003
0	1078	0.2635	0.0035
0	1080	0.264	0.004
0	1106	0.2705	0.0005
0	1108	0.271	0.001
0	1110	0.2715	0.0015
0	1112	0.272	0.002
0	1114	0.2725	0.0025
0	1116	0.273	0.003
0	1118	0.2735	0.0035
0	1120	0.274	0.004
0	1146	0.2805	0.0005
0	1148	0.281	0.001
0	1150	0.2815	0.0015
0	1152	0.282	0.002
0	1154	0.2825	0.0025
0	1156	0.283	0.003
0	1158	0.2835	0.0035
0	1160	0.284	0.004
0	1186	0.2905	0.0005
0	1188	0.291	0.001
0	1190	0.2915	0.0015
0	1192	0.292	0.002
0	1194	0.2925	0.0025
0	1196	0.293	0.003
0	1198	0.2935	0.0035
0	1200	0.294	0.004
0	1226	0.3005	0.0005
0	1228	0.301	0.001
0	1230	0.3015	0.0015
0	1232	0.302	0.002
0	1234	0.3025	0.0025
0	1236	0.303	0.003
0	1238	0.3035	0.0035
0	1240	0.304	0.004
0	1266	0.3105	0.0005
0	1268	0.311	0.001
0	1270	0.3115	0.0015
0	1272	0.312	0.002
0	1274	0.3125	0.0025
0	1276	0.313	0.003
0	1278	0.3135	0.0035
0	1280	0.314	0.004
0	1306	0.3205	0.0005
0	1308	0.321	0.001
0	1310	0.3215	0.0015
0	1312	0.322	0.002
0	1314	0.3225	0.0025
0	1316	0.323	0.003
0	1318	0.3235	0.0035
0	1320	0.324	0.004
0	1346	0.3305	0.0005
0	1348	0.331	0.001
0	1350	0.3315	0.0015
0	1352	0.332	0.002
0	1354	0.3325	0.0025
0	1356	0.333	0.003
0	1358	0.3335	0.0035
0	1360	0.334	0.004
0	1386	0.3405	0.0005
0	1388	0.341	0.001
0	1390	0.3415	0.0015
0	1392	0.342	0.002
0	1394	0.3425	0.0025
0	1396	0.343	0.003
0	1398	0.3435	0.0035
0	1400	0.344	0.004
0	1426	0.3505	0.0005
0	1428	0.351	0.001
0	1430	0.3515	0.0015
0	1432	0.352	0.002
0	1434	0.3525	0.0025
0	1436	0.353	0.003
0	1438	0.3535	0.0035
0	1440	0.354	0.004
0	1466	0.3605	0.0005
0	1468	0.361	0.001
0	1470	0.3615	0.0015
0	1472	0.362	0.002
0	1474	0.3625	0.0025
0	1476	0.363	0.003
0	1478	0.3635	0.0035
0	1480	0.364	0.004
0	1506	0.3705	0.0005
0	1508	0.371	0.001
0	1510	0.3715	0.0015
0	1512	0.372	0.002
0	1514	0.3725	0.0025
0	1516	0.373	0.003
0	1518	0.3735	0.0035
0	1520	0.374	0.004
0	1546	0.3805	0.0005
0	1548	0.381	0.001
0	1550	0.3815	0.0015
0	1552	0.382	0.002
0	1554	0.3825	0.0025
0	1556	0.383	0.003
0	1558	0.3835	0.0035
0	1560	0.384	0.004
0	1586	0.3905	0.0005
0	1588	0.391	0.001
0	1590	0.3915	0.0015
0	1592	0.392	0.002
0	1594	0.3925	0.0025
0	1596	0.393	0.003
0	1598	0.3935	0.0035
0	1600	0.394	0.004
0	1626	0.4005	0.0005
0	1628	0.401	0.001
0	1630	0.4015	0.0015
0	1632	0.402	0.002
0	1634	0.4025	0.0025
0	1636	0.403	0.003
0	1638	0.4035	0.0035
0	1640	0.404	0.004
0	1666	0.4105	0.0005
0	1668	0.411	0.001
0	1670	0.4115	0.0015
0	1672	0.412	0.002
0	1674	0.4125	0.0025
0	1676	0.413	0.003
0	1678	0.4135	0.0035
0	1680	0.414	0.004
0	1706	0.4205	0.0005
0	1708	0.421	0.001
0	1710	0.4215	0.0015
0	1712	0.422	0.002
0	1714	0.4225	0.0025
0	1716	0.423	0.003
0	1718	0.4235	0.0035
0	1720	0.424	0.004
0	1746	0.4305	0.0005
0	1748	0.431	0.001
0	1750	0.4315	0.0015
0	1752	0.432	0.002
0	1754	0.4325	0.0025
0	1756	0.433	0.003
0	1758	0.4335	0.0035
0	1760	0.434	0.004
0	1786	0.4405	0.0005
0	1788	0.441	0.001
0	1790	0.4415	0.0015
0	1792	0.442	0.002
0	1794	0.4425	0.0025
0	1796	0.443	0.003
0	1798	0.4435	0.0035
0	1800	0.444	0.004
0	1826	0.4505	0.0005
0	1828	0.451	0.001
0	1830	0.4515	0.0015
0	1832	0.452	0.002
0	1834	0.4525	0.0025
0	1836	0.453	0.003
0	1838	0.4535	0.0035
0	1840	0.454	0.004
0	1866	0.4605	0.0005
0	1868	0.461	0.001
0	1870	0.4615	0.0015
0	1872	0.462	0.002
0	1874	0.4625	0.0025
0	1876	0.463	0.003
0	1878	0.4635	0.0035
0	1880	0.464	0.004
0	1906	0.4705	0.0005
0	1908	0.471	0.001
0	1910	0.4715	0.0015
0	1912	0.472	0.002
0	1914	0.4725	0.0025
0	1916	0.473	0.003
0	1918	0.4735	0.0035
0	1920	0.474	0.004
0	1946	0.4805	0.0005
0	1948	0.481	0.001
0	1950	0.4815	0.0015
0	1952	0.482	0.002
0	1954	0.4825	0.0025
0	1956	0.483	0.003
0	1958	0.4835	0.0035
0	1960	0.484	0.004
0	1986	0.4905	0.0005
0	1988	0.491	0.001
0	1990	0.4915	0.0015
0	1992	0.492	0.002
0	1994	0.4925	0.0025
0	1996	0.493	0.003
0	1998	0.4935	0.0035
0	2000	0.494	0.004
0	2026	0.5005	0.0005
0	2028	0.501	0.001
0	2030	0.5015	0.0015
0	2032	0.502	0.002
0	2034	0.5025	0.0025
0	2036	0.503	0.003
0	2038	0.5035	0.0035
0	2040	0.504	0.004
0	2066	0.5105	0.0005
0	2068	0.511	0.001
0	2070	0.5115	0.0015
0	2072	0.512	0.002
0	2074	0.5125	0.0025
0	2076	0.513	0.003
0	2078	0.5135	0.0035
0	2080	0.514	0.004
0	2106	0.5205	0.0005
0	2108	0.521	0.001
0	2110	0.5215	0.0015
0	2112	0.522	0.002
0	2114	0.5225	0.0025
0	2116	0.523	0.003
0	2118	0.5235	0.0035
0	2120	0.524	0.004
0	2146	0.5305	0.0005
0	2148	0.531	0.001
0	2150	0.5315	0.0015
0	2152	0.532	0.002
0	2154	0.5325	0.0025
0	2156	0.533	0.003
0	2158	0.5335	0.0035
0	2160	0.534	0.004
0	2186	0.5405	0.0005
0	2188	0.541	0.001
0	2190	0.5415	0.0015
0	2192	0.542	0.002
0	2194	0.5425	0.0025
0	2196	0.543	0.003
0	2198	0.5435	0.0035
0	2200	0.544	0.004
0	2226	0.5505	0.0005
0	2228	0.551	0.001
0	2230	0.5515	0.0015
0	2232	0.552	0.002
0	2234	0.5525	0.0025
0	2236	0.553	0.003
0	2238	0.5535	0.0035
0	2240	0.554	0.004
0	2266	0.5605	0.0005
0	2268	0.561	0.001
0	2270	0.5615	0.0015
0	2272	0.562	0.002
0	2274	0.5625	0.0025
0	2276	0.563	0.003
0	2278	0.5635	0.0035
0	2280	0.564	0.004
0	2306	0.5705	0.0005
0	2308	0.571	0.001
0	2310	0.5715	0.0015
0	2312	0.572	0.002
0	2314	0.5725	0.0025
0	2316	0.573	0.003
0	2318	0.5735	0.0035
0	2320	0.574	0.004
0	2346	0.5805	0.0005
0	2348	0.581	0.001
0	2350	0.5815	0.0015
0	2352	0.582	0.002
0	2354	0.5825	0.0025
0	2356	0.583	0.003
0	2358	0.5835	0.0035
0	2360	0.584	0.004
0	2386	0.5905	0.0005
0	2388	0.591	0.001
0	2390	0.5915	0.0015
0	2392	0.592	0.002
0	2394	0.5925	0.0025
0	2396	0.593	0.003
0	2398	0.5935	0.0035
0	2400	0.594	0.004
0	2426	0.6005	0.0005
0	2428	0.601	0.001
0	2430	0.6015	0.0015
0	2432	0.602	0.002
0	2434	0.6025	0.0025
0	2436	0.603	0.003
0	2438	0.6035	0.0035
0	2440	0.604	0.004
0	2466	0.6105	0.0005
0	2468	0.611	0.001
0	2470	0.6115	0.0015
0	2472	0.612	0.002
0	2474	0.6125	0.0025
0	2476	0.613	0.003
0	2478	0.6135	0.0035
0	2480	0.614	0.004
0	2506	0.6205	0.0005
0	2508	0.621	0.001
0	2510	0.6215	0.0015
0	2512	0.622	0.002
0	2514	0.6225	0.0025
0	2516	0.623	0.003
0	2518	0.6235	0.0035
0	2520	0.624	0.004
0	2546	0.6305	0.0005
0	2548	0.631	0.001
0	2550	0.6315	0.0015
0	2552	0.632	0.002
0	2554	0.6325	0.0025
0	2556	0.633	0.003
0	2558	0.6335	0.0035
0	2560	0.634	0.004
0	2586	0.6405	0.0005
0	2588	0.641	0.001
0	2590	0.6415	0.0015
0	2592	0.642	0.002
0	2594	0.6425	0.0025
0	2596	0.643	0.003
0	2598	0.6435	0.0035
0	2600	0.644	0.004
0	2626	0.6505	0.0005
0	2628	0.651	0.001
0	2630	0.6515	0.0015
0	2632	0.652	0.002
0	2634	0.6525	0.0025
0	2636	0.653	0.003
0	2638	0.6535	0.0035
0	2640	0.654	0.004
0	2666	0.6605	0.0005
0	2668	0.661	0.001
0	2670	0.6615	0.0015
0	2672	0.662	0.002
0	2674	0.6625	0.0025
0	2676	0.663	0.003
0	2678	0.6635	0.0035
0	2680	0.664	0.004
0	2706	0.6705	0.0005
0	2708	0.671	0.001
0	2710	0.6715	0.0015
0	2712	0.672	0.002
0	2714	0.6725	0.0025
0	2716	0.673	0.003
0	2718	0.6735	0.0035
0	2720	0.674	0.004
0	2746	0.6805	0.0005
0	2748	0.681	0.001
0	2750	0.6815	0.0015
0	2752	0.682	0.002
0	2754	0.6825	0.0025
0	2756	0.683	0.003
0	2758	0.6835	0.0035
0	2760	0.684	0.004
0	2786	0.6905	0.0005
0	2788	0.691	0.001
0	2790	0.6915	0.0015
0	2792	0.692	0.002
0	2794	0.6925	0.0025
0	2796	0.693	0.003
0	2798	0.6935	0.0035
0	2800	0.694	0.004
0	2826	0.7005	0.0005
0	2828	0.701	0.001
0	2830	0.7015	0.0015
0	2832	0.702	0.002
0	2834	0.7025	0.0025
0	2836	0.703	0.003
0	2838	0.7035	0.0035
0	2840	0.704	0.004
0	2866	0.7105	0.0005
0	2868	0.711	0.001
0	2870	0.7115	0.0015
0	2872	0.712	0.002
0	2874	0.7125	0.0025
0	2876	0.713	0.003
0	2878	0.7135	0.0035
0	2880	0.714	0.004
0	2906	0.7205	0.0005
0	2908	0.721	0.001
0	2910	0.7215	0.0015
0	2912	0.722	0.002
0	2914	0.7225	0.0025
0	2916	0.723	0.003
0	2918	0.7235	0.0035
0	2920	0.724	0.004
0	2946	0.7305	0.0005
0	2948	0.731	0.001
0	2950	0.7315	0.0015
0	2952	0.732	0.002
0	2954	0.7325	0.0025
0	2956	0.733	0.003
0	2958	0.7335	0.0035
0	2960	0.734	0.004
0	2986	0.7405	0.0005
0	2988	0.741	0.001
0	2990	0.7415	0.0015
0	2992	0.742	0.002
0	2994	0.7425	0.0025
0	2996	0.743	0.003
0	2998	0.7435	0.0035
0	3000	0.744	0.004
0	3026	0.7505	0.0005
0	3028	0.751	0.001
0	3030	0.7515	0.0015
0	3032	0.752	0.002
0	3034	0.7525	0.0025
0	3036	0.753	0.003
0	3038	0.7535	0.0035
0	3040	0.754	0.004
0	3066	0.7605	0.0005
0	3068	0.761	0.001
0	3070	0.7615	0.0015
0	3072	0.762	0.002
0	3074	0.7625	0.0025
0	3076	0.763	0.003
0	3078	0.7635	0.0035
0	3080	0.764	0.004
0	3106	0.7705	0.0005
0	3108	0.771	0.001
0	3110	0.7715	0.0015
0	3112	0.772	0.002
0	3114	0.7725	0.0025
0	3116	0.773	0.003
0	3118	0.7735	0.0035
0	3120	0.774	0.004
0	3146	0.7805	0.0005
0	3148	0.781	0.001
0	3150	0.7815	0.0015
0	3152	0.782	0.002
0	3154	0.7825	0.0025
0	3156	0.783	0.003
0	3158	0.7835	0.0035
0	3160	0.784	0.004
0	3186	0.7905	0.0005
0	3188	0.791	0.001
0	3190	0.7915	0.0015
0	3192	0.792	0.002
0	3194	0.7925	0.0025
0	3196	0.793	0.003
0	3198	0.7935	0.0035
0	3200	0.794	0.004
0	3226	0.8005	0.0005
0	3228	0.801	0.001
0	3230	0.8015	0.0015
0	3232	0.802	0.002
0	3234	0.8025	0.0025
0	3236	0.803	0.003
0	3238	0.8035	0.0035
0	3240	0.804	0.004
0	3266	0.8105	0.0005
0	3268	0.811	0.001
0	3270	0.8115	0.0015
0	3272	0.812	0.002
0	3274	0.8125	0.0025
0	3276	0.813	0.003
0	3278	0.8135	0.0035
0	3280	0.814	0.004
0	3306	0.8205	0.0005
0	3308	0.821	0.001
0	3310	0.8215	0.0015
0	3312	0.822	0.002
0	3314	0.8225	0.0025
0	3316	0.823	0.003
0	3318	0.8235	0.0035
0	3320	0.824	0.004
0	3346	0.8305	0.0005
0	3348	0.831	0.001
0	3350	0.8315	0.0015
0	3352	0.832	0.002
0	3354	0.8325	0.0025
0	3356	0.833	0.003
0	3358	0.8335	0.0035
0	3360	0.834	0.004
0	3386	0.8405	0.0005
0	3388	0.841	0.001
0	3390	0.8415	0.0015
0	3392	0.842	0.002
0	3394	0.8425	0.0025
0	3396	0.843	0.003
0	3398	0.8435	0.0035
0	3400	0.844	0.004
0	3426	0.8505	0.0005
0	3428	0.851	0.001
0	3430	0.8515	0.0015
0	3432	0.852	0.002
0	3434	0.8525	0.0025
0	3436	0.853	0.003
0	3438	0.8535	0.0035
0	3440	0.854	0.004
0	3466	0.8605	0.0005
0	3468	0.861	0.001
0	3470	0.8615	0.0015
0	3472	0.862	0.002
0	3474	0.8625	0.0025
0	3476	0.863	0.003
0	3478	0.8635	0.0035
0	3480	0.864	0.004
0	3506	0.8705	0.0005
0	3508	0.871	0.001
0	3510	0.8715	0.0015
0	3512	0.872	0.002
0	3514	0.8725	0.0025
0	3516	0.873	0.003
0	3518	0.8735	0.0035
0	3520	0.874	0.004
0	3546	0.8805	0.0005
0	3548	0.881	0.001
0	3550	0.8815	0.0015
0	3552	0.882	0.002
0	3554	0.8825	0.0025
0	3556	0.883	0.003
0	3558	0.8835	0.0035
0	3560	0.884	0.004
0	3586	0.8905	0.0005
0	3588	0.891	0.001
0	3590	0.8915	0.0015
0	3592	0.892	0.002
0	3594	0.8925	0.0025
0	3596	0.893	0.003
0	3598	0.8935	0.0035
0	3600	0.894	0.004
0	3626	0.9005	0.0005
0	3628	0.901	0.001
0	3630	0.9015	0.0015
0	3632	0.902	0.002
0	3634	0.9025	0.0025
0	3636	0.903	0.003
0	3638	0.9035	0.0035
0	3640	0.904	0.004
0	3666	0.9105	0.0005
0	3668	0.911	0.001
0	3670	0.9115	0.0015
0	3672	0.912	0.002
0	3674	0.9125	0.0025
0	3676	0.913	0.003
0	3678	0.9135	0.0035
0	3680	0.914	0.004
0	3706	0.9205	0.0005
0	3708	0.921	0.001
0	3710	0.9215	0.0015
0	3712	0.922	0.002
0	3714	0.9225	0.0025
0	3716	0.923	0.003
0	3718	0.9235	0.0035
0	3720	0.924	0.004
0	3746	0.9305	0.0005
0	3748	0.931	0.001
0	3750	0.9315	0.0015
0	3752	0.932	0.002
0	3754	0.9325	0.0025
0	3756	0.933	0.003
0	3758	0.9335	0.0035
0	3760	0.934	0.004
0	3786	0.9405	0.0005
0	3788	0.941	0.001
0	3790	0.9415	0.0015
0	3792	0.942	0.002
0	3794	0.9425	0.0025
0	3796	0.943	0.003
0	3798	0.9435	0.0035
0	3800	0.944	0.004
0	3826	0.9505	0.0005
0	3828	0.951	0.001
0	3830	0.9515	0.0015
0	3832	0.952	0.002
0	3834	0.9525	0.0025
0	3836	0.953	0.003
0	3838	0.9535	0.0035
0	3840	0.954	0.004
0	3866	0.9605	0.0005
0	3868	0.961	0.001
0	3870	0.9615	0.0015
0	3872	0.962	0.002
0	3874	0.9625	0.0025
0	3876	0.963	0.003
0	3878	0.9635	0.0035
0	3880	0.964	0.004
0	3906	0.9705	0.0005
0	3908	0.971	0.001
0	3910	0.9715	0.0015
0	3912	0.972	0.002
0	3914	0.9725	0.0025
0	3916	0.973	0.003
0	3918	0.9735	0.0035
0	3920	0.974	0.004
0	3946	0.9805	0.0005
0	3948	0.981	0.001
0	3950	0.9815	0.0015
0	3952	0.982	0.002
0	3954	0.9825	0.0025
0	3956	0.983	0.003
0	3958	0.9835	0.0035
0	3960	0.984	0.004
0	3986	0.9905	0.0005
0	3988	0.991	0.001
0	3990	0.9915	0.0015
0	3992	0.992	0.002
0	3994	0.9925	0.0025
0	3996	0.993	0.003
0	3998	0.9935	0.0035
0	4000	0.994	0.004
1	0	0	0
1	18	0	1
1	19	0	2
1	20	0	3
1	21	0	4
1	22	0	5
1	23	0	6
1	24	0	7
1	25	0.0005	6
1	27	0.001	5
1	29	0.0015	4
1	31	0.002	3
1	33	0.0025	2
1	35	0.003	1
1	37	0.0035	0
1	58	0.01	1
1	59	0.01	2
1	60	0.01	3
1	61	0.01	4
1	62	0.01	5
1	63	0.01	6
1	64	0.01	7
1	65	0.0105	6
1	67	0.011	5
1	69	0.0115	4
1	71	0.012	3
1	73	0.0125	2
1	75	0.013	1
1	77	0.0135	0
1	98	0.02	1
1	99	0.02	2
1	100	0.02	3
1	101	0.02	4
1	102	0.02	5
1	103	0.02	6
1	104	0.02	7
1	105	0.0205	6
1	107	0.021	5
1	109	0.0215	4
1	111	0.022	3
1	113	0.0225	2
1	115	0.023	1
1	117	0.0235	0
1	138	0.03	1
1	139	0.03	2
1	140	0.03	3
1	141	0.03	4
1	142	0.03	5
1	143	0.03	6
1	144	0.03	7
1	145	0.0305	6
1	147	0.031	5
1	149	0.0315	4
1	151	0.032	3
1	153	0.0325	2
1	155	0.033	1
1	157	0.0335	0
1	178	0.04	1
1	179	0.04	2
1	180	0.04	3
1	181	0.04	4
1	182	0.04	5
1	183	0.04	6
1	184	0.04	7
1	185	0.0405	6
1	187	0.041	5
1	189	0.0415	4
1	191	0.042	3
1	193	0.0425	2
1	195	0.043	1
1	197	0.0435	0
1	218	0.05	1
1	219	0.05	2
1	220	0.05	3
1	221	0.05	4
1	222	0.05	5
1	223	0.05	6
1	224	0.05	7
1	225	0.0505	6
1	227	0.051	5
1	229	0.0515	4
1	231	0.052	3
1	233	0.0525	2
1	235	0.053	1
1	237	0.0535	0
1	258	0.06	1
1	259	0.06	2
1	260	0.06	3
1	261	0.06	4
1	262	0.06	5
1	263	0.06	6
1	264	0.06	7
1	265	0.0605	6
1	267	0.061	5
1	269	0.0615	4
1	271	0.062	3
1	273	0.0625	2
1	275	0.063	1
1	277	0.0635	0
1	298	0.07	1
1	299	0.07	2
1	300	0.07	3
1	301	0.07	4
1	302	0.07	5
1	303	0.07	6
1	304	0.07	7
1	305	0.0705	6
1	307	0.071	5
1	309	0.0715	4
1	311	0.072	3
1	313	0.0725	2
1	315	0.073	1
1	317	0.0735	0
1	338	0.08	1
1	339	0.08	2
1	340	0.08	3
1	341	0.08	4
1	342	0.08	5
1	343	0.08	6
1	344	0.08	7
1	345	0.0805	6
1	347	0.081	5
1	349	0.0815	4
1	351	0.082	3
1	353	0.0825	2
1	355	0.083	1
1	357	0.0835	0
1	378	0.09	1
1	379	0.09	2
1	380	0.09	3
1	381	0.09	4
1	382	0.09	5
1	383	0.09	6
1	384	0.09	7
1	385	0.0905	6
1	387	0.091	5
1	389	0.0915	4
1	391	0.092	3
1	393	0.0925	2
1	395	0.093	1
1	397	0.0935	0
1	418	0.1	1
1	419	0.1	2
1	420	0.1	3
1	421	0.1	4
1	422	0.1	5
1	423	0.1	6
1	424	0.1	7
1	425	0.1005	6
1	427	0.101	5
1	429	0.1015	4
1	431	0.102	3
1	433	0.1025	2
1	435	0.103	1
1	437	0.1035	0
1	458	0.11	1
1	459	0.11	2
1	460	0.11	3
1	461	0.11	4
1	462	0.11	5
1	463	0.11	6
1	464	0.11	7
1	465	0.1105	6
1	467	0.111	5
1	469	0.1115	4
1	471	0.112	3
1	473	0.1125	2
1	475	0.113	1
1	477	0.1135	0
1	498	0.12	1
1	499	0.12	2
1	500	0.12	3
1	501	0.12	4
1	502	0.12	5
1	503	0.12	6
1	504	0.12	7
1	505	0.1205	6
1	507	0.121	5
1	509	0.1215	4
1	511	0.122	3
1	513	0.1225	2
1	515	0.123	1
1	517	0.1235	0
1	538	0.13	1
1	539	0.13	2
1	540	0.13	3
1	541	0.13	4
1	542	0.13	5
1	543	0.13	6
1	544	0.13	7
1	545	0.1305	6
1	547	0.131	5
1	549	0.1315	4
1	551	0.132	3
1	553	0.1325	2
1	555	0.133	1
1	557	0.1335	0
1	578	0.14	1
1	579	0.14	2
1	580	0.14	3
1	581	0.14	4
1	582	0.14	5
1	583	0.14	6
1	584	0.14	7
1	585	0.1405	6
1	587	0.141	5
1	589	0.1415	4
1	591	0.142	3
1	593	0.1425	2
1	595	0.143	1
1	597	0.1435	0
1	618	0.15	1
1	619	0.15	2
1	620	0.15	3
1	621	0.15	4
1	622	0.15	5
1	623	0.15	6
1	624	0.15	7
1	625	0.1505	6
1	627	0.151	5
1	629	0.1515	4
1	631	0.152	3
1	633	0.1525	2
1	635	0.153	1
1	637	0.1535	0
1	658	0.16	1
1	659	0.16	2
1	660	0.16	3
1	661	0.16	4
1	662	0.16	5
1	663	0.16	6
1	664	0.16	7
1	665	0.1605	6
1	667	0.161	5
1	669	0.1615	4
1	671	0.162	3
1	673	0.1625	2
1	675	0.163	1
1	677	0.1635	0
1	698	0.17	1
1	699	0.17	2
1	700	0.17	3
1	701	0.17	4
1	702	0.17	5
1	703	0.17	6
1	704	0.17	7
1	705	0.1705	6
1	707	0.171	5
1	709	0.1715	4
1	711	0.172	3
1	713	0.1725	2
1	715	0.173	1
1	717	0.1735	0
1	738	0.18	1
1	739	0.18	2
1	740	0.18	3
1	741	0.18	4
1	742	0.18	5
1	743	0.18	6
1	744	0.18	7
1	745	0.1805	6
1	747	0.181	5
1	749	0.1815	4
1	751	0.182	3
1	753	0.1825	2
1	755	0.183	1
1	757	0.1835	0
1	778	0.19	1
1	779	0.19	2
1	780	0.19	3
1	781	0.19	4
1	782	0.19	5
1	783	0.19	6
1	784	0.19	7
1	785	0.1905	6
1	787	0.191	5
1	789	0.1915	4
1	791	0.192	3
1	793	0.1925	2
1	795	0.193	1
1	797	0.1935	0
1	818	0.2	1
1	819	0.2	2
1	820	0.2	3
1	821	0.2	4
1	822	0.2	5
1	823	0.2	6
1	824	0.2	7
1	825	0.2005	6
1	827	0.201	5
1	829	0.2015	4
1	831	0.202	3
1	833	0.2025	2
1	835	0.203	1
1	837	0.2035	0
1	858	0.21	1
1	859	0.21	2
1	860	0.21	3
1	861	0.21	4
1	862	0.21	5
1	863	0.21	6
1	864	0.21	7
1	865	0.2105	6
1	867	0.211	5
1	869	0.2115	4
1	871	0.212	3
1	873	0.2125	2
1	875	0.213	1
1	877	0.2135	0
1	898	0.22	1
1	899	0.22	2
1	900	0.22	3
1	901	0.22	4
1	902	0.22	5
1	903	0.22	6
1	904	0.22	7
1	905	0.2205	6
1	907	0.221	5
1	909	0.2215	4
1	911	0.222	3
1	913	0.2225	2
1	915	0.223	1
1	917	0.2235	0
1	938	0.23	1
1	939	0.23	2
1	940	0.23	3
1	941	0.23	4
1	942	0.23	5
1	943	0.23	6
1	944	0.23	7
1	945	0.2305	6
1	947	0.231	5
1	949	0.2315	4
1	951	0.232	3
1	953	0.2325	2
1	955	0.233	1
1	957	0.2335	0
1	978	0.24	1
1	979	0.24	2
1	980	0.24	3
1	981	0.24	4
1	982	0.24	5
1	983	0.24	6
1	984	0.24	7
1	985	0.2405	6
1	987	0.241	5
1	989	0.2415	4
1	991	0.242	3
1	993	0.2425	2
1	995	0.243	1
1	997	0.2435	0
1	1018	0.25	1
1	1019	0.25	2
1	1020	0.25	3
1	1021	0.25	4
1	1022	0.25	5
1	1023	0.25	6
1	1024	0.25	7
1	1025	0.2505	6
1	1027	0.251	5
1	1029	0.2515	4
1	1031	0.252	3
1	1033	0.2525	2
1	1035	0.253	1
1	1037	0.2535	0
1	1058	0.26	1
1	1059	0.26	2
1	1060	0.26	3
1	1061	0.26	4
1	1062	0.26	5
1	1063	0.26	6
1	1064	0.26	7
1	1065	0.2605	6
1	1067	0.261	5
1	1069	0.2615	4
1	1071	0.262	3
1	1073	0.2625	2
1	1075	0.263	1
1	1077	0.2635	0
1	1098	0.27	1
1	1099	0.27	2
1	1100	0.27	3
1	1101	0.27	4
1	1102	0.27	5
1	1103	0.27	6
1	1104	0.27	7
1	1105	0.2705	6
1	1107	0.271	5
1	1109	0.2715	4
1	1111	0.272	3
1	1113	0.2725	2
1	1115	0.273	1
1	1117	0.2735	0
1	1138	0.28	1
1	1139	0.28	2
1	1140	0.28	3
1	1141	0.28	4
1	1142	0.28	5
1	1143	0.28	6
1	1144	0.28	7
1	1145	0.2805	6
1	1147	0.281	5
1	1149	0.2815	4
1	1151	0.282	3
1	1153	0.2825	2
1	1155	0.283	1
1	1157	0.2835	0
1	1178	0.29	1
1	1179	0.29	2
1	1180	0.29	3
1	1181	0.29	4
1	1182	0.29	5
1	1183	0.29	6
1	1184	0.29	7
1	1185	0.2905	6
1	1187	0.291	5
1	1189	0.2915	4
1	1191	0.292	3
1	1193	0.2925	2
1	1195	0.293	1
1	1197	0.2935	0
1	1218	0.3	1
1	1219	0.3	2
1	1220	0.3	3
1	1221	0.3	4
1	1222	0.3	5
1	1223	0.3	6
1	1224	0.3	7
1	1225	0.3005	6
1	1227	0.301	5
1	1229	0.3015	4
1	1231	0.302	3
1	1233	0.3025	2
1	1235	0.303	1
1	1237	0.3035	0
1	1258	0.31	1
1	1259	0.31	2
1	1260	0.31	3
1	1261	0.31	4
1	1262	0.31	5
1	1263	0.31	6
1	1264	0.31	7
1	1265	0.3105	6
1	1267	0.311	5
1	1269	0.3115	4
1	1271	0.312	3
1	1273	0.3125	2
1	1275	0.313	1
1	1277	0.3135	0
1	1298	0.32	1
1	1299	0.32	2
1	1300	0.32	3
1	1301	0.32	4
1	1302	0.32	5
1	1303	0.32	6
1	1304	0.32	7
1	1305	0.3205	6
1	1307	0.321	5
1	1309	0.3215	4
1	1311	0.322	3
1	1313	0.3225	2
1	1315	0.323	1
1	1317	0.3235	0
1	1338	0.33	1
1	1339	0.33	2
1	1340	0.33	3
1	1341	0.33	4
1	1342	0.33	5
1	1343	0.33	6
1	1344	0.33	7
1	1345	0.3305	6
1	1347	0.331	5
1	1349	0.3315	4
1	1351	0.332	3
1	1353	0.3325	2
1	1355	0.333	1
1	1357	0.3335	0
1	1378	0.34	1
1	1379	0.34	2
1	1380	0.34	3
1	1381	0.34	4
1	1382	0.34	5
1	1383	0.34	6
1	1384	0.34	7
1	1385	0.3405	6
1	1387	0.341	5
1	1389	0.3415	4
1	1391	0.342	3
1	1393	0.3425	2
1	1395	0.343	1
1	1397	0.3435	0
1	1418	0.35	1
1	1419	0.35	2
1	1420	0.35	3
1	1421	0.35	4
1	1422	0.35	5
1	1423	0.35	6
1	1424	0.35	7
1	1425	0.3505	6
1	1427	0.351	5
1	1429	0.3515	4
1	1431	0.352	3
1	1433	0.3525	2
1	1435	0.353	1
1	1437	0.3535	0
1	1458	0.36	1
1	1459	0.36	2
1	1460	0.36	3
1	1461	0.36	4
1	1462	0.36	5
1	1463	0.36	6
1	1464	0.36	7
1	1465	0.3605	6
1	1467	0.361	5
1	1469	0.3615	4
1	1471	0.362	3
1	1473	0.3625	2
1	1475	0.363	1
1	1477	0.3635	0
1	1498	0.37	1
1	1499	0.37	2
1	1500	0.37	3
1	1501	0.37	4
1	1502	0.37	5
1	1503	0.37	6
1	1504	0.37	7
1	1505	0.3705	6
1	1507	0.371	5
1	1509	0.3715	4
1	1511	0.372	3
1	1513	0.3725	2
1	1515	0.373	1
1	1517	0.3735	0
1	1538	0.38	1
1	1539	0.38	2
1	1540	0.38	3
1	1541	0.38	4
1	1542	0.38	5
1	1543	0.38	6
1	1544	0.38	7
1	1545	0.3805	6
1	1547	0.381	5
1	1549	0.3815	4
1	1551	0.382	3
1	1553	0.3825	2
1	1555	0.383	1
1	1557	0.3835	0
1	1578	0.39	1
1	1579	0.39	2
1	1580	0.39	3
1	1581	0.39	4
1	1582	0.39	5
1	1583	0.39	6
1	1584	0.39	7
1	1585	0.3905	6
1	1587	0.391	5
1	1589	0.3915	4
1	1591	0.392	3
1	1593	0.3925	2
1	1595	0.393	1
1	1597	0.3935	0
1	1618	0.4	1
1	1619	0.4	2
1	1620	0.4	3
1	1621	0.4	4
1	1622	0.4	5
1	1623	0.4	6
1	1624	0.4	7
1	1625	0.4005	6
1	1627	0.401	5
1	1629	0.4015	4
1	1631	0.402	3
1	1633	0.4025	2
1	1635	0.403	1
1	1637	0.4035	0
1	1658	0.41	1
1	1659	0.41	2
1	1660	0.41	3
1	1661	0.41	4
1	1662	0.41	5
1	1663	0.41	6
1	1664	0.41	7
1	1665	0.4105	6
1	1667	0.411	5
1	1669	0.4115	4
1	1671	0.412	3
1	1673	0.4125	2
1	1675	0.413	1
1	1677	0.4135	0
1	1698	0.42	1
1	1699	0.42	2
1	1700	0.42	3
1	1701	0.42	4
1	1702	0.42	5
1	1703	0.42	6
1	1704	0.42	7
1	1705	0.4205	6
1	1707	0.421	5
1	1709	0.4215	4
1	1711	0.422	3
1	1713	0.4225	2
1	1715	0.423	1
1	1717	0.4235	0
1	1738	0.43	1
1	1739	0.43	2
1	1740	0.43	3
1	1741	0.43	4
1	1742	0.43	5
1	1743	0.43	6
1	1744	0.43	7
1	1745	0.4305	6
1	1747	0.431	5
1	1749	0.4315	4
1	1751	0.432	3
1	1753	0.4325	2
1	1755	0.433	1
1	1757	0.4335	0
1	1778	0.44	1
1	1779	0.44	2
1	1780	0.44	3
1	1781	0.44	4
1	1782	0.44	5
1	1783	0.44	6
1	1784	0.44	7
1	1785	0.4405	6
1	1787	0.441	5
1	1789	0.4415	4
1	1791	0.442	3
1	1793	0.4425	2
1	1795	0.443	1
1	1797	0.4435	0
1	1818	0.45	1
1	1819	0.45	2
1	1820	0.45	3
1	1821	0.45	4
1	1822	0.45	5
1	1823	0.45	6
1	1824	0.45	7
1	1825	0.4505	6
1	1827	0.451	5
1	1829	0.4515	4
1	1831	0.452	3
1	1833	0.4525	2
1	1835	0.453	1
1	1837	0.4535	0
1	1858	0.46	1
1	1859	0.46	2
1	1860	0.46	3
1	1861	0.46	4
1	1862	0.46	5
1	1863	0.46	6
1	1864	0.46	7
1	1865	0.4605	6
1	1867	0.461	5
1	1869	0.4615	4
1	1871	0.462	3
1	1873	0.4625	2
1	1875	0.463	1
1	1877	0.4635	0
1	1898	0.47	1
1	1899	0.47	2
1	1900	0.47	3
1	1901	0.47	4
1	1902	0.47	5
1	1903	0.47	6
1	1904	0.47	7
1	1905	0.4705	6
1	1907	0.471	5
1	1909	0.4715	4
1	1911	0.472	3
1	1913	0.4725	2
1	1915	0.473	1
1	1917	0.4735	0
1	1938	0.48	1
1	1939	0.48	2
1	1940	0.48	3
1	1941	0.48	4
1	1942	0.48	5
1	1943	0.48	6
1	1944	0.48	7
1	1945	0.4805	6
1	1947	0.481	5
1	1949	0.4815	4
1	1951	0.482	3
1	1953	0.4825	2
1	1955	0.483	1
1	1957	0.4835	0
1	1978	0.49	1
1	1979	0.49	2
1	1980	0.49	3
1	1981	0.49	4
1	1982	0.49	5
1	1983	0.49	6
1	1984	0.49	7
1	1985	0.4905	6
1	1987	0.491	5
1	1989	0.4915	4
1	1991	0.492	3
1	1993	0.4925	2
1	1995	0.493	1
1	1997	0.4935	0
1	2018	0.5	1
1	2019	0.5	2
1	2020	0.5	3
1	2021	0.5	4
1	2022	0.5	5
1	2023	0.5	6
1	2024	0.5	7
1	2025	0.5005	6
1	2027	0.501	5
1	2029	0.5015	4
1	2031	0.502	3
1	2033	0.5025	2
1	2035	0.503	1
1	2037	0.5035	0
1	2058	0.51	1
1	2059	0.51	2
1	2060	0.51	3
1	2061	0.51	4
1	2062	0.51	5
1	2063	0.51	6
1	2064	0.51	7
1	2065	0.5105	6
1	2067	0.511	5
1	2069	0.5115	4
1	2071	0.512	3
1	2073	0.5125	2
1	2075	0.513	1
1	2077	0.5135	0
1	2098	0.52	1
1	2099	0.52	2
1	2100	0.52	3
1	2101	0.52	4
1	2102	0.52	5
1	2103	0.52	6
1	2104	0.52	7
1	2105	0.5205	6
1	2107	0.521	5
1	2109	0.5215	4
1	2111	0.522	3
1	2113	0.5225	2
1	2115	0.523	1
1	2117	0.5235	0
1	2138	0.53	1
1	2139	0.53	2
1	2140	0.53	3
1	2141	0.53	4
1	2142	0.53	5
1	2143	0.53	6
1	2144	0.53	7
1	2145	0.5305	6
1	2147	0.531	5
1	2149	0.5315	4
1	2151	0.532	3
1	2153	0.5325	2
1	2155	0.533	1
1	2157	0.5335	0
1	2178	0.54	1
1	2179	0.54	2
1	2180	0.54	3
1	2181	0.54	4
1	2182	0.54	5
1	2183	0.54	6
1	2184	0.54	7
1	2185	0.5405	6
1	2187	0.541	5
1	2189	0.5415	4
1	2191	0.542	3
1	2193	0.5425	2
1	2195	0.543	1
1	2197	0.5435	0
1	2218	0.55	1
1	2219	0.55	2
1	2220	0.55	3
1	2221	0.55	4
1	2222	0.55	5
1	2223	0.55	6
1	2224	0.55	7
1	2225	0.5505	6
1	2227	0.551	5
1	2229	0.5515	4
1	2231	0.552	3
1	2233	0.5525	2
1	2235	0.553	1
1	2237	0.5535	0
1	2258	0.56	1
1	2259	0.56	2
1	2260	0.56	3
1	2261	0.56	4
1	2262	0.56	5
1	2263	0.56	6
1	2264	0.56	7
1	2265	0.5605	6
1	2267	0.561	5
1	2269	0.5615	4
1	2271	0.562	3
1	2273	0.5625	2
1	2275	0.563	1
1	2277	0.5635	0
1	2298	0.57	1
1	2299	0.57	2
1	2300	0.57	3
1	2301	0.57	4
1	2302	0.57	5
1	2303	0.57	6
1	2304	0.57	7
1	2305	0.5705	6
1	2307	0.571	5
1	2309	0.5715	4
1	2311	0.572	3
1	2313	0.5725	2
1	2315	0.573	1
1	2317	0.5735	0
1	2338	0.58	1
1	2339	0.58	2
1	2340	0.58	3
1	2341	0.58	4
1	2342	0.58	5
1	2343	0.58	6
1	2344	0.58	7
1	2345	0.5805	6
1	2347	0.581	5
1	2349	0.5815	4
1	2351	0.582	3
1	2353	0.5825	2
1	2355	0.583	1
1	2357	0.5835	0
1	2378	0.59	1
1	2379	0.59	2
1	2380	0.59	3
1	2381	0.59	4
1	2382	0.59	5
1	2383	0.59	6
1	2384	0.59	7
1	2385	0.5905	6
1	2387	0.591	5
1	2389	0.5915	4
1	2391	0.592	3
1	2393	0.5925	2
1	2395	0.593	1
1	2397	0.5935	0
1	2418	0.6	1
1	2419	0.6	2
1	2420	0.6	3
1	2421	0.6	4
1	2422	0.6	5
1	2423	0.6	6
1	2424	0.6	7
1	2425	0.6005	6
1	2427	0.601	5
1	2429	0.6015	4
1	2431	0.602	3
1	2433	0.6025	2
1	2435	0.603	1
1	2437	0.6035	0
1	2458	0.61	1
1	2459	0.61	2
1	2460	0.61	3
1	2461	0.61	4
1	2462	0.61	5
1	2463	0.61	6
1	2464	0.61	7
1	2465	0.6105	6
1	2467	0.611	5
1	2469	0.6115	4
1	2471	0.612	3
1	2473	0.6125	2
1	2475	0.613	1
1	2477	0.6135	0
1	2498	0.62	1
1	2499	0.62	2
1	2500	0.62	3
1	2501	0.62	4
1	2502	0.62	5
1	2503	0.62	6
1	2504	0.62	7
1	2505	0.6205	6
1	2507	0.621	5
1	2509	0.6215	4
1	2511	0.622	3
1	2513	0.6225	2
1	2515	0.623	1
1	2517	0.6235	0
1	2538	0.63	1
1	2539	0.63	2
1	2540	0.63	3
1	2541	0.63	4
1	2542	0.63	5
1	2543	0.63	6
1	2544	0.63	7
1	2545	0.6305	6
1	2547	0.631	5
1	2549	0.6315	4
1	2551	0.632	3
1	2553	0.6325	2
1	2555	0.633	1
1	2557	0.6335	0
1	2578	0.64	1
1	2579	0.64	2
1	2580	0.64	3
1	2581	0.64	4
1	2582	0.64	5
1	2583	0.64	6
1	2584	0.64	7
1	2585	0.6405	6
1	2587	0.641	5
1	2589	0.6415	4
1	2591	0.642	3
1	2593	0.6425	2
1	2595	0.643	1
1	2597	0.6435	0
1	2618	0.65	1
1	2619	0.65	2
1	2620	0.65	3
1	2621	0.65	4
1	2622	0.65	5
1	2623	0.65	6
1	2624	0.65	7
1	2625	0.6505	6
1	2627	0.651	5
1	2629	0.6515	4
1	2631	0.652	3
1	2633	0.6525	2
1	2635	0.653	1
1	2637	0.6535	0
1	2658	0.66	1
1	2659	0.66	2
1	2660	0.66	3
1	2661	0.66	4
1	2662	0.66	5
1	2663	0.66	6
1	2664	0.66	7
1	2665	0.6605	6