version 2
run FifoWRS-0-20120217-13:49:58-26429
attr configname FifoWRS
attr datetime 20120217-13:49:58
attr experiment FifoWRS
attr inifile omnetpp.ini
attr iterationvars ""
attr iterationvars2 $repetition=0
attr measurement ""
attr network FifoNetWRS
attr processid 26429
attr repetition 0
attr replication #0
attr resultdir results
attr runnumber 0
attr seedset 0

vector 8  FifoNetWRS.wrs  qlen:vector  ETV
attr interpolationmode  sample-hold
attr title  "queue length, vector"
vector 9  FifoNetWRS.wrs  queueingTime:vector  ETV
attr interpolationmode  none
attr title  "queueing time at dequeue, vector"
attr unit  s
vector 7  FifoNetWRS.sink7  lifetime:vector  ETV
attr interpolationmode  none
attr title  "lifetime of arrived jobs, vector"
attr unit  s
vector 2  FifoNetWRS.sink2  lifetime:vector  ETV
attr interpolationmode  none
attr title  "lifetime of arrived jobs, vector"
attr unit  s
vector 1  FifoNetWRS.sink1  lifetime:vector  ETV
attr interpolationmode  none
attr title  "lifetime of arrived jobs, vector"
attr unit  s
vector 3  FifoNetWRS.sink3  lifetime:vector  ETV
attr interpolationmode  none
attr title  "lifetime of arrived jobs, vector"
attr unit  s
vector 5  FifoNetWRS.sink5  lifetime:vector  ETV
attr interpolationmode  none
attr title  "lifetime of arrived jobs, vector"
attr unit  s
vector 4  FifoNetWRS.sink4  lifetime:vector  ETV
attr interpolationmode  none
attr title  "lifetime of arrived jobs, vector"
attr unit  s
vector 0  FifoNetWRS.sink0  lifetime:vector  ETV
attr interpolationmode  none
attr title  "lifetime of arrived jobs, vector"
attr unit  s
vector 6  FifoNetWRS.sink6  lifetime:vector  ETV
attr interpolationmode  none
attr title  "lifetime of arrived jobs, vector"
attr unit  s
0	87	0.02006	6e-05
0	118	0.030048	4.8e-05
0	205	0.060012	1.2e-05
0	209	0.060036	3.6e-05
0	235	0.070012	1.2e-05
0	237	0.070024	2.4e-05
0	241	0.070048	4.8e-05
0	277	0.080096	9.6e-05
0	478	0.150012	1.2e-05
0	547	0.17006	6e-05
0	549	0.170072	7.2e-05
0	600	0.190012	1.2e-05
0	606	0.190048	4.8e-05
0	608	0.19006	6e-05
0	638	0.200036	3.6e-05
0	665	0.210024	2.4e-05
0	669	0.210048	4.8e-05
0	671	0.21006	6e-05
0	728	0.230024	2.4e-05
0	759	0.240036	3.6e-05
0	817	0.260024	2.4e-05
0	852	0.270036	3.6e-05
0	885	0.280048	4.8e-05
0	915	0.290048	4.8e-05
0	955	0.300096	9.6e-05
0	1039	0.330024	2.4e-05
0	1045	0.33006	6e-05
0	1047	0.330072	7.2e-05
0	1103	0.350024	2.4e-05
0	1135	0.360036	3.6e-05
0	1263	0.400072	7.2e-05
0	1325	0.420072	7.2e-05
0	1327	0.420084	8.4e-05
0	1354	0.430048	4.8e-05
0	1450	0.46006	6e-05
0	1475	0.470024	2.4e-05
0	1481	0.47006	6e-05
0	1509	0.480048	4.8e-05
0	1511	0.48006	6e-05
0	1539	0.490036	3.6e-05
0	1541	0.490048	4.8e-05
0	1568	0.500012	1.2e-05
0	1631	0.520012	1.2e-05
0	1633	0.520024	2.4e-05
0	1670	0.53006	6e-05
0	1704	0.540084	8.4e-05
0	1762	0.560048	4.8e-05
0	1821	0.580024	2.4e-05
0	1861	0.590072	7.2e-05
0	1863	0.590084	8.4e-05
0	1891	0.60006	6e-05
0	1893	0.600072	7.2e-05
0	2133	0.680024	2.4e-05
0	2143	0.680084	8.4e-05
0	2165	0.690024	2.4e-05
0	2199	0.700036	3.6e-05
0	2230	0.710024	2.4e-05
0	2232	0.710036	3.6e-05
0	2392	0.760084	8.4e-05
0	2422	0.770084	8.4e-05
0	2447	0.780036	3.6e-05
0	2451	0.78006	6e-05
0	2536	0.810024	2.4e-05
0	2577	0.820084	8.4e-05
0	2598	0.830024	2.4e-05
0	2604	0.83006	6e-05
0	2608	0.830084	8.4e-05
0	2658	0.850012	1.2e-05
0	2668	0.850072	7.2e-05
0	2701	0.860084	8.4e-05
0	2756	0.880048	4.8e-05
0	2758	0.88006	6e-05
0	2787	0.890024	2.4e-05
0	2789	0.890036	3.6e-05
0	2853	0.910072	7.2e-05
0	2917	0.930084	8.4e-05
0	2971	0.950012	1.2e-05
0	3003	0.960036	3.6e-05
0	3005	0.960048	4.8e-05
0	3007	0.96006	6e-05
0	3038	0.970048	4.8e-05
0	3044	0.970084	8.4e-05
0	3063	0.980012	1.2e-05
0	3071	0.98006	6e-05
0	3100	0.990048	4.8e-05
0	3125	1.000012	1.2e-05
0	3129	1.000036	3.6e-05
0	3137	1.000084	8.4e-05
0	3165	1.01006	6e-05
0	3218	1.030012	1.2e-05
0	3226	1.03006	6e-05
0	3257	1.04006	6e-05
0	3259	1.040072	7.2e-05
0	3291	1.050084	8.4e-05
0	3316	1.060036	3.6e-05
0	3343	1.070012	1.2e-05
0	3345	1.070024	2.4e-05
0	3351	1.07006	6e-05
0	3411	1.090048	4.8e-05
0	3469	1.110024	2.4e-05
0	3510	1.120072	7.2e-05
0	3512	1.120084	8.4e-05
0	3602	1.150072	7.2e-05
0	3631	1.160048	4.8e-05
0	3661	1.170048	4.8e-05
0	3669	1.170096	9.6e-05
0	3701	1.180096	9.6e-05
0	3791	1.21006	6e-05
0	3820	1.220048	4.8e-05
0	3824	1.220072	7.2e-05
0	3916	1.250072	7.2e-05
0	3974	1.270024	2.4e-05
0	3976	1.270036	3.6e-05
0	4035	1.290024	2.4e-05
0	4039	1.290048	4.8e-05
0	4075	1.300072	7.2e-05
0	4095	1.310012	1.2e-05
0	4097	1.310024	2.4e-05
0	4099	1.310036	3.6e-05
0	4127	1.320036	3.6e-05
0	4164	1.33006	6e-05
0	4193	1.340024	2.4e-05
0	4216	1.350024	2.4e-05
0	4222	1.35006	6e-05
0	4250	1.360048	4.8e-05
0	4288	1.370072	7.2e-05
0	4309	1.380024	2.4e-05
0	4341	1.390024	2.4e-05
0	4345	1.390048	4.8e-05
0	4401	1.410024	2.4e-05
0	4471	1.430084	8.4e-05
0	4536	1.450096	9.6e-05
0	4566	1.460084	8.4e-05
0	4627	1.48006	6e-05
0	4723	1.510096	9.6e-05
0	4748	1.520048	4.8e-05
0	4782	1.530072	7.2e-05
0	4839	1.550036	3.6e-05
0	4841	1.550048	4.8e-05
0	4881	1.560096	9.6e-05
0	4939	1.580048	4.8e-05
0	4941	1.58006	6e-05
0	4963	1.590024	2.4e-05
0	4967	1.590048	4.8e-05
0	5001	1.60006	6e-05
0	5034	1.61006	6e-05
0	5038	1.610084	8.4e-05
0	5057	1.620012	1.2e-05
0	5098	1.630072	7.2e-05
0	5158	1.650048	4.8e-05
0	5162	1.650072	7.2e-05
0	5182	1.660012	1.2e-05
0	5186	1.660036	3.6e-05
0	5190	1.66006	6e-05
0	5252	1.680072	7.2e-05
0	5275	1.690012	1.2e-05
0	5277	1.690024	2.4e-05
0	5281	1.690048	4.8e-05
0	5287	1.690084	8.4e-05
0	5339	1.710024	2.4e-05
0	5349	1.710084	8.4e-05
0	5408	1.73006	6e-05
0	5432	1.740012	1.2e-05
0	5440	1.74006	6e-05
0	5442	1.740072	7.2e-05
0	5465	1.750012	1.2e-05
0	5473	1.75006	6e-05
0	5508	1.760084	8.4e-05
0	5537	1.770072	7.2e-05
0	5651	1.810012	1.2e-05
0	5653	1.810024	2.4e-05
0	5689	1.82006	6e-05
0	5691	1.820072	7.2e-05
0	5693	1.820084	8.4e-05
0	5713	1.830012	1.2e-05
0	5715	1.830024	2.4e-05
0	5751	1.840048	4.8e-05
0	5757	1.840084	8.4e-05
0	5789	1.850072	7.2e-05
0	5841	1.870024	2.4e-05
0	5845	1.870048	4.8e-05
0	5938	1.900036	3.6e-05
0	6009	1.920072	7.2e-05
0	6029	1.930024	2.4e-05
0	6069	1.94006	6e-05
0	6095	1.950048	4.8e-05
0	6127	1.960048	4.8e-05
0	6133	1.960084	8.4e-05
0	6164	1.970072	7.2e-05
0	6184	1.980012	1.2e-05
0	6186	1.980024	2.4e-05
0	6190	1.980048	4.8e-05
0	6198	1.980096	9.6e-05
0	6219	1.990024	2.4e-05
0	6253	2.000036	3.6e-05
0	6314	2.020036	3.6e-05
0	6318	2.02006	6e-05
0	6320	2.020072	7.2e-05
0	6383	2.040072	7.2e-05
0	6438	2.060036	3.6e-05
0	6498	2.080024	2.4e-05
0	6500	2.080036	3.6e-05
0	6533	2.09006	6e-05
0	6585	2.110012	1.2e-05
0	6593	2.11006	6e-05
0	6622	2.120048	4.8e-05
0	6649	2.130024	2.4e-05
0	6711	2.150012	1.2e-05
0	6713	2.150024	2.4e-05
0	6719	2.15006	6e-05
0	6748	2.160048	4.8e-05
0	6768	2.170012	1.2e-05
0	6770	2.170024	2.4e-05
0	6802	2.180012	1.2e-05
0	6835	2.190036	3.6e-05
0	6895	2.210024	2.4e-05
0	6903	2.210072	7.2e-05
0	6929	2.220048	4.8e-05
0	6935	2.220084	8.4e-05
0	6960	2.230036	3.6e-05
0	7026	2.25006	6e-05
0	7120	2.280048	4.8e-05
0	7148	2.290036	3.6e-05
0	7150	2.290048	4.8e-05
0	7180	2.300036	3.6e-05
0	7182	2.300048	4.8e-05
0	7250	2.32006	6e-05
0	7274	2.330024	2.4e-05
0	7276	2.330036	3.6e-05
0	7301	2.340012	1.2e-05
0	7309	2.34006	6e-05
0	7311	2.340072	7.2e-05
0	7340	2.35006	6e-05
0	7367	2.360036	3.6e-05
0	7402	2.37006	6e-05
0	7437	2.380084	8.4e-05
0	7455	2.390012	1.2e-05
0	7469	2.390096	9.6e-05
0	7529	2.410072	7.2e-05
0	7552	2.420024	2.4e-05
0	7558	2.42006	6e-05
0	7614	2.440024	2.4e-05
0	7626	2.440096	9.6e-05
0	7648	2.450024	2.4e-05
0	7652	2.450048	4.8e-05
0	7654	2.45006	6e-05
0	7744	2.48006	6e-05
0	7797	2.500012	1.2e-05
0	7803	2.500048	4.8e-05
0	7809	2.500084	8.4e-05
0	7828	2.510012	1.2e-05
0	7834	2.510048	4.8e-05
0	7867	2.52006	6e-05
0	7869	2.520072	7.2e-05
0	7893	2.530036	3.6e-05
0	7895	2.530048	4.8e-05
0	7928	2.540048	4.8e-05
0	7934	2.540084	8.4e-05
0	7986	2.560024	2.4e-05
0	8016	2.570012	1.2e-05
0	8030	2.570096	9.6e-05
0	8061	2.580084	8.4e-05
0	8080	2.590012	1.2e-05
0	8092	2.590084	8.4e-05
0	8179	2.62006	6e-05
0	8236	2.640036	3.6e-05
0	8264	2.650012	1.2e-05
0	8266	2.650024	2.4e-05
0	8268	2.650036	3.6e-05
0	8305	2.66006	6e-05
0	8332	2.670036	3.6e-05
0	8368	2.680072	7.2e-05
0	8490	2.720048	4.8e-05
0	8517	2.730012	1.2e-05
0	8519	2.730024	2.4e-05
0	8646	2.770036	3.6e-05
0	8654	2.770084	8.4e-05
0	8682	2.780072	7.2e-05
0	8709	2.790036	3.6e-05
0	8746	2.800072	7.2e-05
0	8772	2.810036	3.6e-05
0	8778	2.810072	7.2e-05
0	8802	2.820048	4.8e-05
0	8863	2.840036	3.6e-05
0	8955	2.870024	2.4e-05
0	9019	2.890036	3.6e-05
0	9057	2.90006	6e-05
0	9084	2.910048	4.8e-05
0	9112	2.920024	2.4e-05
0	9118	2.92006	6e-05
0	9146	2.93006	6e-05
0	9234	2.960024	2.4e-05
0	9236	2.960036	3.6e-05
0	9238	2.960048	4.8e-05
0	9426	3.02006	6e-05
0	9453	3.030024	2.4e-05
0	9483	3.040012	1.2e-05
0	9517	3.050024	2.4e-05
0	9581	3.070072	7.2e-05
0	9583	3.070084	8.4e-05
0	9663	3.100012	1.2e-05
0	9673	3.100072	7.2e-05
0	9675	3.100084	8.4e-05
0	9693	3.110012	1.2e-05
0	9699	3.110048	4.8e-05
0	9705	3.110084	8.4e-05
0	9728	3.120024	2.4e-05
0	9738	3.120084	8.4e-05
0	9793	3.140024	2.4e-05
0	9797	3.140048	4.8e-05
0	9827	3.15006	6e-05
0	9880	3.170024	2.4e-05
0	9945	3.190024	2.4e-05
0	9947	3.190036	3.6e-05
0	9951	3.19006	6e-05
0	9981	3.20006	6e-05
0	10047	3.22006	6e-05
0	10065	3.230012	1.2e-05
0	10071	3.230048	4.8e-05
0	10099	3.240012	1.2e-05
0	10168	3.260048	4.8e-05
0	10200	3.270084	8.4e-05
0	10228	3.28006	6e-05
0	10284	3.300012	1.2e-05
0	10294	3.300072	7.2e-05
0	10318	3.310036	3.6e-05
0	10320	3.310048	4.8e-05
0	10324	3.310072	7.2e-05
0	10384	3.330048	4.8e-05
0	10390	3.330084	8.4e-05
0	10441	3.350012	1.2e-05
0	10449	3.35006	6e-05
0	10473	3.360024	2.4e-05
0	10483	3.360084	8.4e-05
0	10508	3.370036	3.6e-05
0	10516	3.370084	8.4e-05
0	10540	3.380048	4.8e-05
0	10544	3.380072	7.2e-05
0	10573	3.390048	4.8e-05
0	10605	3.40006	6e-05
0	10611	3.400096	9.6e-05
0	10662	3.420024	2.4e-05
0	10674	3.420096	9.6e-05
0	10695	3.430024	2.4e-05
0	10758	3.450036	3.6e-05
0	10768	3.450096	9.6e-05
0	10791	3.460036	3.6e-05
0	10820	3.470024	2.4e-05
0	10882	3.490012	1.2e-05
0	10948	3.51006	6e-05
0	10950	3.510072	7.2e-05
0	10971	3.520012	1.2e-05
0	10983	3.520084	8.4e-05
0	11005	3.530036	3.6e-05
0	11011	3.530072	7.2e-05
0	11035	3.540024	2.4e-05
0	11047	3.540096	9.6e-05
0	11068	3.550024	2.4e-05
0	11072	3.550048	4.8e-05
0	11078	3.550084	8.4e-05
0	11137	3.570072	7.2e-05
0	11141	3.570096	9.6e-05
0	11161	3.580024	2.4e-05
0	11257	3.610036	3.6e-05
0	11291	3.62006	6e-05
0	11293	3.620072	7.2e-05
0	11321	3.630036	3.6e-05
0	11325	3.63006	6e-05
0	11354	3.64006	6e-05
0	11387	3.650072	7.2e-05
0	11474	3.680036	3.6e-05
0	11476	3.680048	4.8e-05
0	11510	3.69006	6e-05
0	11539	3.70006	6e-05
0	11562	3.710012	1.2e-05
0	11568	3.710048	4.8e-05
0	11686	3.750012	1.2e-05
0	11688	3.750024	2.4e-05
0	11692	3.750048	4.8e-05
0	11729	3.760072	7.2e-05
0	11763	3.770096	9.6e-05
0	11786	3.780036	3.6e-05
0	11824	3.790084	8.4e-05
0	11845	3.800012	1.2e-05
0	11888	3.810084	8.4e-05
0	11911	3.820036	3.6e-05
0	11913	3.820048	4.8e-05
0	11941	3.830036	3.6e-05
0	11947	3.830072	7.2e-05
0	12011	3.850072	7.2e-05
0	12015	3.850096	9.6e-05
0	12036	3.860024	2.4e-05
0	12044	3.860072	7.2e-05
0	12067	3.870024	2.4e-05
0	12108	3.880084	8.4e-05
0	12126	3.890012	1.2e-05
0	12196	3.910048	4.8e-05
0	12229	3.920072	7.2e-05
0	12257	3.93006	6e-05
0	12259	3.930072	7.2e-05
0	12289	3.940048	4.8e-05
0	12342	3.960036	3.6e-05
0	12370	3.970012	1.2e-05
0	12376	3.970048	4.8e-05
0	12446	3.990072	7.2e-05
0	12476	4.000084	8.4e-05
0	12540	4.020072	7.2e-05
0	12562	4.030024	2.4e-05
0	12590	4.040024	2.4e-05
0	12592	4.040036	3.6e-05
0	12594	4.040048	4.8e-05
0	12598	4.040072	7.2e-05
0	12602	4.040096	9.6e-05
0	12655	4.060036	3.6e-05
0	12661	4.060072	7.2e-05
0	12663	4.060084	8.4e-05
0	12685	4.070012	1.2e-05
0	12687	4.070024	2.4e-05
0	12723	4.080072	7.2e-05
0	12789	4.100072	7.2e-05
0	12812	4.110036	3.6e-05
0	12838	4.120012	1.2e-05
0	12848	4.120072	7.2e-05
0	12903	4.140012	1.2e-05
0	12905	4.140024	2.4e-05
0	12913	4.140072	7.2e-05
0	12915	4.140084	8.4e-05
0	12934	4.150012	1.2e-05
0	12936	4.150024	2.4e-05
0	12996	4.170012	1.2e-05
0	13036	4.18006	6e-05
0	13042	4.180096	9.6e-05
0	13062	4.190024	2.4e-05
0	13064	4.190036	3.6e-05
0	13066	4.190048	4.8e-05
0	13160	4.220036	3.6e-05
0	13293	4.260072	7.2e-05
0	13348	4.280036	3.6e-05
0	13354	4.280072	7.2e-05
0	13408	4.300024	2.4e-05
0	13410	4.300036	3.6e-05
0	13412	4.300048	4.8e-05
0	13414	4.30006	6e-05
0	13471	4.320036	3.6e-05
0	13534	4.340048	4.8e-05
0	13566	4.350036	3.6e-05
0	13572	4.350072	7.2e-05
0	13714	4.400024	2.4e-05
0	13716	4.400036	3.6e-05
0	13771	4.420012	1.2e-05
0	13775	4.420036	3.6e-05
0	13781	4.420072	7.2e-05
0	13805	4.430024	2.4e-05
0	13817	4.430096	9.6e-05
0	13843	4.44006	6e-05
0	13845	4.440072	7.2e-05
0	13849	4.440096	9.6e-05
0	13872	4.450036	3.6e-05
0	13904	4.460048	4.8e-05
0	13938	4.470048	4.8e-05
0	14030	4.500048	4.8e-05
0	14034	4.500072	7.2e-05
0	14038	4.500096	9.6e-05
0	14056	4.510012	1.2e-05
0	14066	4.510072	7.2e-05
0	14070	4.510096	9.6e-05
0	14127	4.530048	4.8e-05
0	14160	4.540072	7.2e-05
0	14241	4.570012	1.2e-05
0	14286	4.580084	8.4e-05
0	14307	4.590024	2.4e-05
0	14348	4.600084	8.4e-05
0	14366	4.610012	1.2e-05
0	14374	4.61006	6e-05
0	14408	4.62006	6e-05
0	14435	4.630048	4.8e-05
0	14493	4.650024	2.4e-05
0	14521	4.660012	1.2e-05
0	14523	4.660024	2.4e-05
0	14529	4.66006	6e-05
0	14555	4.670024	2.4e-05
0	14589	4.680024	2.4e-05
0	14597	4.680072	7.2e-05
0	14616	4.690012	1.2e-05
0	14654	4.700048	4.8e-05
0	14689	4.710084	8.4e-05
0	14713	4.720048	4.8e-05
0	14715	4.72006	6e-05
0	14719	4.720084	8.4e-05
0	14740	4.730012	1.2e-05
0	14748	4.73006	6e-05
0	14752	4.730084	8.4e-05
0	14774	4.740036	3.6e-05
0	14840	4.760048	4.8e-05
0	14842	4.76006	6e-05
0	14848	4.760096	9.6e-05
0	14867	4.770012	1.2e-05
0	14934	4.790048	4.8e-05
0	14938	4.790072	7.2e-05
0	15216	4.880072	7.2e-05
0	15246	4.890084	8.4e-05
0	15266	4.900012	1.2e-05
0	15300	4.910024	2.4e-05
0	15312	4.910096	9.6e-05
0	15344	4.920096	9.6e-05
0	15364	4.930024	2.4e-05
0	15399	4.940036	3.6e-05
0	15486	4.970012	1.2e-05
0	15583	5.000036	3.6e-05
0	15618	5.010048	4.8e-05
0	15622	5.010072	7.2e-05
0	15654	5.020072	7.2e-05
0	15712	5.04006	6e-05
0	15718	5.040096	9.6e-05
0	15744	5.050048	4.8e-05
0	15780	5.060096	9.6e-05
0	15798	5.070012	1.2e-05
0	15812	5.070096	9.6e-05
0	15898	5.100036	3.6e-05
0	15904	5.100072	7.2e-05
0	15930	5.110048	4.8e-05
0	15936	5.110084	8.4e-05
0	15960	5.120036	3.6e-05
0	15964	5.12006	6e-05
0	16020	5.140024	2.4e-05
0	16091	5.160072	7.2e-05
0	16095	5.160096	9.6e-05
0	16118	5.170036	3.6e-05
0	16122	5.17006	6e-05
0	16156	5.180084	8.4e-05
0	16188	5.190084	8.4e-05
0	16278	5.220048	4.8e-05
0	16395	5.260012	1.2e-05
0	16401	5.260048	4.8e-05
0	16499	5.290072	7.2e-05
0	16531	5.300072	7.2e-05
0	16557	5.310036	3.6e-05
0	16567	5.310096	9.6e-05
0	16658	5.34006	6e-05
0	16684	5.350048	4.8e-05
0	16686	5.35006	6e-05
0	16706	5.360012	1.2e-05
0	16744	5.370036	3.6e-05
0	16842	5.400084	8.4e-05
0	16867	5.410048	4.8e-05
0	16893	5.420012	1.2e-05
0	16954	5.440012	1.2e-05
0	16958	5.440036	3.6e-05
0	16962	5.44006	6e-05
0	16964	5.440072	7.2e-05
0	16986	5.450024	2.4e-05
0	16994	5.450072	7.2e-05
0	17015	5.460024	2.4e-05
0	17047	5.470024	2.4e-05
0	17146	5.50006	6e-05
0	17171	5.510024	2.4e-05
0	17202	5.520024	2.4e-05
0	17298	5.550036	3.6e-05
0	17304	5.550072	7.2e-05
0	17333	5.560072	7.2e-05
0	17367	5.570096	9.6e-05
0	17387	5.580024	2.4e-05
0	17395	5.580072	7.2e-05
0	17459	5.600084	8.4e-05
0	17510	5.620012	1.2e-05
0	17512	5.620024	2.4e-05
0	17542	5.630012	1.2e-05
0	17584	5.640096	9.6e-05
0	17605	5.650012	1.2e-05
0	17633	5.660024	2.4e-05
0	17666	5.670012	1.2e-05
0	17674	5.67006	6e-05
0	17692	5.680012	1.2e-05
0	17726	5.690012	1.2e-05
0	17730	5.690036	3.6e-05
0	17763	5.70006	6e-05
0	17767	5.700084	8.4e-05
0	17791	5.710036	3.6e-05
0	17797	5.710072	7.2e-05
0	17972	5.770012	1.2e-05
0	17978	5.770048	4.8e-05
0	18045	5.790072	7.2e-05
0	18063	5.800012	1.2e-05
0	18128	5.820012	1.2e-05
0	18138	5.820072	7.2e-05
0	18161	5.830024	2.4e-05
0	18222	5.850012	1.2e-05
0	18262	5.86006	6e-05
0	18314	5.880012	1.2e-05
0	18322	5.88006	6e-05
0	18326	5.880084	8.4e-05
0	18328	5.880096	9.6e-05
0	18358	5.890072	7.2e-05
0	18450	5.920072	7.2e-05
0	18474	5.930024	2.4e-05
0	18478	5.930048	4.8e-05
0	18530	5.950012	1.2e-05
0	18542	5.950084	8.4e-05
0	18569	5.96006	6e-05
0	18573	5.960084	8.4e-05
0	18605	5.970096	9.6e-05
0	18663	5.99006	6e-05
0	18691	6.000036	3.6e-05
0	18724	6.010036	3.6e-05
0	18728	6.01006	6e-05
0	18732	6.010084	8.4e-05
0	18756	6.020048	4.8e-05
0	18764	6.020096	9.6e-05
0	18782	6.030012	1.2e-05
0	18819	6.040036	3.6e-05
0	18856	6.050072	7.2e-05
0	18917	6.070072	7.2e-05
0	18951	6.080084	8.4e-05
0	18953	6.080096	9.6e-05
0	18975	6.090036	3.6e-05
0	18977	6.090048	4.8e-05
0	18981	6.090072	7.2e-05
0	18985	6.090096	9.6e-05
0	19013	6.100072	7.2e-05
0	19038	6.110024	2.4e-05
0	19042	6.110048	4.8e-05
0	19100	6.130024	2.4e-05
0	19106	6.13006	6e-05
0	19110	6.130084	8.4e-05
0	19135	6.140048	4.8e-05
0	19193	6.160024	2.4e-05
0	19290	6.190036	3.6e-05
0	19356	6.210036	3.6e-05
0	19411	6.230012	1.2e-05
0	19443	6.240012	1.2e-05
0	19455	6.240084	8.4e-05
0	19478	6.250024	2.4e-05
0	19486	6.250072	7.2e-05
0	19515	6.26006	6e-05
0	19610	6.290072	7.2e-05
0	19632	6.300024	2.4e-05
0	19638	6.30006	6e-05
0	19667	6.310036	3.6e-05
0	19675	6.310084	8.4e-05
0	19798	6.350072	7.2e-05
0	19832	6.360096	9.6e-05
0	19862	6.370072	7.2e-05
0	19982	6.410048	4.8e-05
0	20014	6.42006	6e-05
0	20046	6.430084	8.4e-05
0	20075	6.44006	6e-05
0	20137	6.460048	4.8e-05
0	20162	6.470024	2.4e-05
0	20168	6.47006	6e-05
0	20255	6.500012	1.2e-05
0	20261	6.500048	4.8e-05
0	20283	6.510012	1.2e-05
0	20287	6.510036	3.6e-05
0	20346	6.530012	1.2e-05
0	20445	6.560036	3.6e-05
0	20453	6.560084	8.4e-05
0	20474	6.570012	1.2e-05
0	20511	6.580048	4.8e-05
0	20515	6.580072	7.2e-05
0	20576	6.60006	6e-05
0	20627	6.620012	1.2e-05
0	20631	6.620036	3.6e-05
0	20637	6.620072	7.2e-05
0	20669	6.63006	6e-05
0	20692	6.640024	2.4e-05
0	20696	6.640048	4.8e-05
0	20755	6.660024	2.4e-05
0	20790	6.67006	6e-05
0	20846	6.690036	3.6e-05
0	20852	6.690072	7.2e-05
0	20910	6.71006	6e-05
0	20912	6.710072	7.2e-05
0	20916	6.710096	9.6e-05
0	20947	6.720084	8.4e-05
0	20966	6.730012	1.2e-05
0	21030	6.750012	1.2e-05
0	21058	6.760012	1.2e-05
0	21120	6.780012	1.2e-05
0	21132	6.780084	8.4e-05
0	21162	6.790072	7.2e-05
0	21189	6.800024	2.4e-05
0	21195	6.80006	6e-05
0	21213	6.810012	1.2e-05
0	21223	6.810072	7.2e-05
0	21249	6.820036	3.6e-05
0	21253	6.82006	6e-05
0	21279	6.830024	2.4e-05
0	21285	6.83006	6e-05
0	21289	6.830084	8.4e-05
0	21316	6.840048	4.8e-05
0	21318	6.84006	6e-05
0	21405	6.870012	1.2e-05
0	21441	6.88006	6e-05
0	21461	6.890012	1.2e-05
0	21469	6.89006	6e-05
0	21538	6.910096	9.6e-05
0	21594	6.93006	6e-05
0	21618	6.940024	2.4e-05
0	21680	6.960036	3.6e-05
0	21743	6.980024	2.4e-05
0	21777	6.990048	4.8e-05
0	21779	6.99006	6e-05
0	21810	7.000048	4.8e-05
0	21845	7.010072	7.2e-05
0	21866	7.020012	1.2e-05
0	21898	7.030024	2.4e-05
0	21906	7.030072	7.2e-05
0	21910	7.030096	9.6e-05
0	21961	7.050024	2.4e-05
0	21969	7.050072	7.2e-05
0	21994	7.060024	2.4e-05
0	21998	7.060048	4.8e-05
0	22000	7.06006	6e-05
0	22027	7.070036	3.6e-05
0	22056	7.080024	2.4e-05
0	22060	7.080048	4.8e-05
0	22091	7.090048	4.8e-05
0	22120	7.100036	3.6e-05
0	22147	7.110012	1.2e-05
0	22149	7.110024	2.4e-05
0	22236	7.140012	1.2e-05
0	22273	7.150024	2.4e-05
0	22275	7.150036	3.6e-05
0	22341	7.170072	7.2e-05
0	22359	7.180012	1.2e-05
0	22405	7.190096	9.6e-05
0	22424	7.200012	1.2e-05
0	22460	7.210036	3.6e-05
0	22485	7.220012	1.2e-05
0	22521	7.230048	4.8e-05
0	22523	7.23006	6e-05
0	22529	7.230096	9.6e-05
0	22580	7.250012	1.2e-05
0	22584	7.250036	3.6e-05
0	22588	7.25006	6e-05
0	22640	7.270012	1.2e-05
0	22642	7.270024	2.4e-05
0	22646	7.270048	4.8e-05
0	22681	7.28006	6e-05
0	22717	7.290096	9.6e-05
0	22807	7.320048	4.8e-05
0	22872	7.340096	9.6e-05
0	22898	7.35006	6e-05
0	22958	7.370036	3.6e-05
0	22988	7.380012	1.2e-05
0	22990	7.380024	2.4e-05
0	23118	7.420048	4.8e-05
0	23120	7.42006	6e-05
0	23122	7.420072	7.2e-05
0	23182	7.440072	7.2e-05
0	23186	7.440096	9.6e-05
0	23248	7.460096	9.6e-05
0	23269	7.470024	2.4e-05
0	23271	7.470036	3.6e-05
0	23273	7.470048	4.8e-05
0	23311	7.480096	9.6e-05
0	23331	7.490012	1.2e-05
0	23369	7.50006	6e-05
0	23371	7.500072	7.2e-05
0	23392	7.510024	2.4e-05
0	23423	7.520024	2.4e-05
0	23456	7.530036	3.6e-05
0	23460	7.53006	6e-05
0	23462	7.530072	7.2e-05
0	23490	7.54006	6e-05
0	23524	7.550072	7.2e-05
0	23526	7.550084	8.4e-05
0	23558	7.560084	8.4e-05
0	23578	7.570012	1.2e-05
0	23584	7.570048	4.8e-05
0	23612	7.580024	2.4e-05
0	23624	7.580096	9.6e-05
0	23649	7.590048	4.8e-05
0	23718	7.610096	9.6e-05
0	23748	7.620072	7.2e-05
0	23771	7.630036	3.6e-05
0	23775	7.63006	6e-05
0	23834	7.650048	4.8e-05
0	23895	7.670048	4.8e-05
0	23929	7.680072	7.2e-05
0	23996	7.700096	9.6e-05
0	24019	7.710036	3.6e-05
0	24049	7.720036	3.6e-05
0	24085	7.73006	6e-05
0	24142	7.750012	1.2e-05
0	24146	7.750036	3.6e-05
0	24176	7.760048	4.8e-05
0	24302	7.80006	6e-05
0	24304	7.800072	7.2e-05
0	24358	7.820012	1.2e-05
0	24360	7.820024	2.4e-05
0	24372	7.820096	9.6e-05
0	24436	7.840096	9.6e-05
0	24460	7.850048	4.8e-05
0	24489	7.860024	2.4e-05
0	24520	7.870024	2.4e-05
0	24551	7.880024	2.4e-05
0	24579	7.890012	1.2e-05
0	24581	7.890024	2.4e-05
0	24616	7.900024	2.4e-05
0	24622	7.90006	6e-05
0	24643	7.910024	2.4e-05
0	24651	7.910072	7.2e-05
0	24653	7.910084	8.4e-05
0	24673	7.920024	2.4e-05
0	24681	7.920072	7.2e-05
0	24708	7.930036	3.6e-05
0	24744	7.940072	7.2e-05
0	24769	7.950012	1.2e-05
0	24771	7.950024	2.4e-05
0	24773	7.950036	3.6e-05
0	24800	7.960036	3.6e-05
0	24831	7.970036	3.6e-05
0	24862	7.980036	3.6e-05
0	24900	7.990084	8.4e-05
0	24933	8.000084	8.4e-05
0	24956	8.010036	3.6e-05
0	24985	8.020024	2.4e-05
0	25021	8.03006	6e-05
0	25025	8.030084	8.4e-05
0	25050	8.040036	3.6e-05
0	25114	8.060048	4.8e-05
0	25140	8.070024	2.4e-05
0	25239	8.100036	3.6e-05
0	25243	8.10006	6e-05
0	25305	8.120072	7.2e-05
0	25327	8.130024	2.4e-05
0	25358	8.140012	1.2e-05
0	25450	8.170012	1.2e-05
0	25485	8.180024	2.4e-05
0	25495	8.180084	8.4e-05
0	25548	8.200036	3.6e-05
0	25585	8.21006	6e-05
0	25589	8.210084	8.4e-05
0	25641	8.230024	2.4e-05
0	25653	8.230096	9.6e-05
0	25741	8.260048	4.8e-05
0	25743	8.26006	6e-05
0	25765	8.270012	1.2e-05
0	25775	8.270072	7.2e-05
0	25831	8.290036	3.6e-05
0	25859	8.300024	2.4e-05
0	25867	8.300072	7.2e-05
0	25951	8.330012	1.2e-05
0	26026	8.350084	8.4e-05
0	26028	8.350096	9.6e-05
0	26050	8.360024	2.4e-05
0	26141	8.390024	2.4e-05
0	26143	8.390036	3.6e-05
0	26153	8.390096	9.6e-05
0	26182	8.400072	7.2e-05
0	26208	8.410048	4.8e-05
0	26237	8.420024	2.4e-05
0	26239	8.420036	3.6e-05
0	26275	8.430072	7.2e-05
0	26304	8.440048	4.8e-05
0	26306	8.44006	6e-05
0	26337	8.45006	6e-05
0	26391	8.470012	1.2e-05
0	26424	8.480012	1.2e-05
0	26432	8.48006	6e-05
0	26467	8.490084	8.4e-05
0	26578	8.530012	1.2e-05
0	26582	8.530036	3.6e-05
0	26642	8.550012	1.2e-05
0	26648	8.550048	4.8e-05
0	26672	8.560012	1.2e-05
0	26701	8.570012	1.2e-05
0	26735	8.580024	2.4e-05
0	26737	8.580036	3.6e-05
0	26806	8.600084	8.4e-05
0	26857	8.620012	1.2e-05
0	26916	8.640012	1.2e-05
0	26930	8.640096	9.6e-05
0	27049	8.68006	6e-05
0	27109	8.700036	3.6e-05
0	27113	8.70006	6e-05
0	27138	8.710012	1.2e-05
0	27146	8.71006	6e-05
0	27231	8.740036	3.6e-05
0	27260	8.750012	1.2e-05
0	27293	8.760024	2.4e-05
0	27297	8.760048	4.8e-05
0	27364	8.780072	7.2e-05
0	27393	8.790072	7.2e-05
0	27421	8.800048	4.8e-05
0	27457	8.810096	9.6e-05
0	27489	8.820096	9.6e-05
0	27520	8.830084	8.4e-05
0	27572	8.850024	2.4e-05
0	27607	8.860036	3.6e-05
0	27611	8.86006	6e-05
0	27675	8.880072	7.2e-05
0	27697	8.890012	1.2e-05
0	27707	8.890072	7.2e-05
0	27742	8.900084	8.4e-05
0	27766	8.910048	4.8e-05
0	27795	8.920012	1.2e-05
0	27865	8.940096	9.6e-05
0	27887	8.950036	3.6e-05
0	27891	8.95006	6e-05
0	27897	8.950096	9.6e-05
0	27921	8.960048	4.8e-05
0	27927	8.960084	8.4e-05
0	27985	8.98006	6e-05
0	28039	9.000012	1.2e-05
0	28043	9.000036	3.6e-05
0	28047	9.00006	6e-05
0	28107	9.020072	7.2e-05
0	28223	9.060036	3.6e-05
0	28231	9.060084	8.4e-05
0	28402	9.120012	1.2e-05
0	28408	9.120048	4.8e-05
0	28414	9.120084	8.4e-05
0	28437	9.130036	3.6e-05
0	28439	9.130048	4.8e-05
0	28443	9.130072	7.2e-05
0	28469	9.140048	4.8e-05
0	28570	9.170084	8.4e-05
0	28572	9.170096	9.6e-05
0	28599	9.18006	6e-05
0	28690	9.210048	4.8e-05
0	28694	9.210072	7.2e-05
0	28696	9.210084	8.4e-05
0	28753	9.230048	4.8e-05
0	28780	9.240024	2.4e-05
0	28782	9.240036	3.6e-05
0	28844	9.260036	3.6e-05
0	28854	9.260096	9.6e-05
0	28873	9.270012	1.2e-05
0	28875	9.270024	2.4e-05
0	28881	9.27006	6e-05
0	28940	9.29006	6e-05
0	28946	9.290096	9.6e-05
0	29033	9.320048	4.8e-05
0	29060	9.330012	1.2e-05
0	29100	9.340072	7.2e-05
0	29104	9.340096	9.6e-05
0	29153	9.360012	1.2e-05
0	29155	9.360024	2.4e-05
0	29163	9.360072	7.2e-05
0	29216	9.380024	2.4e-05
0	29222	9.38006	6e-05
0	29284	9.40006	6e-05
0	29313	9.410036	3.6e-05
0	29317	9.41006	6e-05
0	29347	9.42006	6e-05
0	29375	9.430024	2.4e-05
0	29434	9.450012	1.2e-05
0	29440	9.450048	4.8e-05
0	29467	9.460036	3.6e-05
0	29558	9.490024	2.4e-05
0	29568	9.490084	8.4e-05
0	29592	9.500024	2.4e-05
0	29619	9.510012	1.2e-05
0	29651	9.520024	2.4e-05
0	29661	9.520084	8.4e-05
0	29746	9.550024	2.4e-05
0	29810	9.570024	2.4e-05
0	29814	9.570048	4.8e-05
0	29849	9.58006	6e-05
0	29851	9.580072	7.2e-05
0	29871	9.590012	1.2e-05
0	29875	9.590036	3.6e-05
0	29908	9.600036	3.6e-05
0	29976	9.62006	6e-05
0	29996	9.630012	1.2e-05
0	30006	9.630072	7.2e-05
0	30055	9.650012	1.2e-05
0	30059	9.650036	3.6e-05
0	30061	9.650048	4.8e-05
0	30069	9.650096	9.6e-05
0	30091	9.660024	2.4e-05
0	30099	9.660072	7.2e-05
0	30150	9.680012	1.2e-05
0	30250	9.71006	6e-05
0	30278	9.72006	6e-05
0	30403	9.76006	6e-05
0	30405	9.760072	7.2e-05
0	30437	9.770072	7.2e-05
0	30465	9.780048	4.8e-05
0	30469	9.780072	7.2e-05
0	30497	9.790048	4.8e-05
0	30501	9.790072	7.2e-05
0	30503	9.790084	8.4e-05
0	30534	9.800072	7.2e-05
0	30556	9.810012	1.2e-05
0	30584	9.820012	1.2e-05
0	30586	9.820024	2.4e-05
0	30592	9.82006	6e-05
0	30660	9.840084	8.4e-05
0	30690	9.850084	8.4e-05
0	30809	9.890048	4.8e-05
0	30843	9.900084	8.4e-05
0	30908	9.920096	9.6e-05
0	30939	9.930084	8.4e-05
0	30964	9.940048	4.8e-05
0	30997	9.95006	6e-05
0	31049	9.970012	1.2e-05
0	31116	9.990048	4.8e-05
0	31142	10.000024	2.4e-05
0	31148	10.00006	6e-05
0	31154	10.000096	9.6e-05
0	31185	10.010084	8.4e-05
0	31217	10.020096	9.6e-05
0	31237	10.030024	2.4e-05
0	31245	10.030072	7.2e-05
0	31269	10.040012	1.2e-05
0	31273	10.040036	3.6e-05
0	31334	10.06006	6e-05
0	31336	10.060072	7.2e-05
0	31357	10.070012	1.2e-05
0	31395	10.080048	4.8e-05
0	31427	10.09006	6e-05
0	31479	10.110012	1.2e-05
0	31483	10.110036	3.6e-05
0	31489	10.110072	7.2e-05
0	31555	10.130084	8.4e-05
0	31617	10.150072	7.2e-05
0	31702	10.180024	2.4e-05
0	31735	10.190024	2.4e-05
0	31743	10.190072	7.2e-05
0	31763	10.200012	1.2e-05
0	31839	10.220084	8.4e-05
0	31866	10.23006	6e-05
0	31932	10.250084	8.4e-05
0	32027	10.280072	7.2e-05
0	32050	10.290024	2.4e-05
0	32112	10.310024	2.4e-05
0	32181	10.33006	6e-05
0	32207	10.340036	3.6e-05
0	32300	10.370036	3.6e-05
0	32304	10.37006	6e-05
0	32340	10.380072	7.2e-05
0	32367	10.39006	6e-05
0	32429	10.410072	7.2e-05
0	32458	10.420048	4.8e-05
0	32525	10.440096	9.6e-05
0	32549	10.450048	4.8e-05
0	32577	10.460024	2.4e-05
0	32617	10.47006	6e-05
0	32619	10.470072	7.2e-05
0	32646	10.48006	6e-05
0	32736	10.510048	4.8e-05
0	32766	10.520048	4.8e-05
0	32774	10.520096	9.6e-05
0	32804	10.530084	8.4e-05
0	32806	10.530096	9.6e-05
0	32828	10.540036	3.6e-05
0	32889	10.560012	1.2e-05
0	32925	10.570036	3.6e-05
0	32929	10.57006	6e-05
0	32952	10.580024	2.4e-05
0	32962	10.580084	8.4e-05
0	32980	10.590012	1.2e-05
0	32988	10.59006	6e-05
0	32990	10.590072	7.2e-05
0	32994	10.590096	9.6e-05
0	33136	10.640012	1.2e-05
0	33177	10.65006	6e-05
0	33181	10.650084	8.4e-05
0	33200	10.660012	1.2e-05
0	33204	10.660036	3.6e-05
0	33212	10.660084	8.4e-05
0	33264	10.680024	2.4e-05
0	33272	10.680072	7.2e-05
0	33333	10.70006	6e-05
0	33355	10.710012	1.2e-05
0	33365	10.710072	7.2e-05
0	33387	10.720012	1.2e-05
0	33395	10.72006	6e-05
0	33399	10.720084	8.4e-05
0	33425	10.730048	4.8e-05
0	33487	10.750036	3.6e-05
0	33524	10.76006	6e-05
0	33586	10.780072	7.2e-05
0	33617	10.79006	6e-05
0	33675	10.810024	2.4e-05
0	33705	10.820036	3.6e-05
0	33707	10.820048	4.8e-05
0	33715	10.820096	9.6e-05
0	33745	10.830084	8.4e-05
0	33769	10.840036	3.6e-05
0	33809	10.850084	8.4e-05
0	33831	10.860024	2.4e-05
0	33843	10.860096	9.6e-05
0	33904	10.880072	7.2e-05
0	33929	10.890036	3.6e-05
0	33963	10.900048	4.8e-05
0	33965	10.90006	6e-05
0	34120	10.95006	6e-05
0	34245	10.990072	7.2e-05
0	34265	11.000012	1.2e-05
0	34330	11.020024	2.4e-05
0	34332	11.020036	3.6e-05
0	34340	11.020084	8.4e-05
0	34342	11.020096	9.6e-05
0	34420	11.050012	1.2e-05
0	34430	11.050072	7.2e-05
0	34453	11.060012	1.2e-05
0	34491	11.07006	6e-05
0	34495	11.070084	8.4e-05
0	34518	11.080024	2.4e-05
0	34520	11.080036	3.6e-05
0	34550	11.090024	2.4e-05
0	34578	11.100024	2.4e-05
0	34586	11.100072	7.2e-05
0	34615	11.110048	4.8e-05
0	34617	11.11006	6e-05
0	34641	11.120012	1.2e-05
0	34651	11.120072	7.2e-05
0	34671	11.130012	1.2e-05
0	34673	11.130024	2.4e-05
0	34701	11.140024	2.4e-05
0	34713	11.140096	9.6e-05
0	34735	11.150036	3.6e-05
0	34829	11.180024	2.4e-05
0	34859	11.190012	1.2e-05
0	34863	11.190036	3.6e-05
0	34873	11.190096	9.6e-05
0	34903	11.200084	8.4e-05
0	34927	11.210024	2.4e-05
0	34959	11.220048	4.8e-05
0	34996	11.230072	7.2e-05
0	35020	11.240036	3.6e-05
0	35050	11.250012	1.2e-05
0	35078	11.260012	1.2e-05
0	35080	11.260024	2.4e-05
0	35121	11.270072	7.2e-05
0	35146	11.280036	3.6e-05
0	35235	11.310012	1.2e-05
0	35237	11.310024	2.4e-05
0	35241	11.310048	4.8e-05
0	35299	11.330024	2.4e-05
0	35305	11.33006	6e-05
0	35330	11.340024	2.4e-05
0	35364	11.350048	4.8e-05
0	35370	11.350084	8.4e-05
0	35372	11.350096	9.6e-05
0	35394	11.360036	3.6e-05
0	35396	11.360048	4.8e-05
0	35429	11.370048	4.8e-05
0	35431	11.37006	6e-05
0	35489	11.390036	3.6e-05
0	35495	11.390072	7.2e-05
0	35528	11.400084	8.4e-05
0	35556	11.410072	7.2e-05
0	35614	11.430036	3.6e-05
0	35672	11.450036	3.6e-05
0	35709	11.46006	6e-05
0	35736	11.470036	3.6e-05
0	35764	11.480024	2.4e-05
0	35796	11.490012	1.2e-05
0	35800	11.490036	3.6e-05
0	35836	11.500084	8.4e-05
0	35896	11.52006	6e-05
0	35898	11.520072	7.2e-05
0	35900	11.520084	8.4e-05