file 3600 1328793831                                            
version 2
run CQN-0-20120112-12:36:45-2592
attr configname CQN
attr datetime 20120112-12:36:45
attr experiment CQN
attr inifile omnetpp.ini
attr iterationvars $numQueues=5
attr iterationvars2 "$numQueues=5, $repetition=0"
attr measurement $numQueues=5
attr network ClosedQueueingNetwork
attr numQueues 5
attr processid 2592
attr repetition 0
attr replication #0
attr resultdir results
attr runnumber 0
attr seedset 0
vector 0  ClosedQueueingNetwork.tandemQueue[0].queue[0]  queueLength:vector  ETV
attr interpolationmode sample-hold
attr title "queue length, vector"
0	2766 145 0 147 0 341.973102608724 7 0 2 5 7
vector 1  ClosedQueueingNetwork.tandemQueue[0].queue[1]  queueLength:vector  ETV
attr interpolationmode sample-hold
attr title "queue length, vector"
1	2911 61 0 157 0 348.012863493179 3 0 1 1 1
vector 2  ClosedQueueingNetwork.tandemQueue[0].queue[2]  queueLength:vector  ETV
attr interpolationmode sample-hold
attr title "queue length, vector"
2	2972 9 0 0 0 0 1 0 0 0 0
vector 3  ClosedQueueingNetwork.tandemQueue[0].queue[3]  queueLength:vector  ETV
attr interpolationmode sample-hold
attr title "queue length, vector"
3	2981 161 0 168 0 362.963271868881 7 0 1 3 3
vector 4  ClosedQueueingNetwork.tandemQueue[0].queue[4]  queueLength:vector  ETV
attr interpolationmode sample-hold
attr title "queue length, vector"
4	3142 57 0 64 0 75.167817249364 3 0 1 1 1
vector 5  ClosedQueueingNetwork.tandemQueue[1].queue[0]  queueLength:vector  ETV
attr interpolationmode sample-hold
attr title "queue length, vector"
5	3199 41 0 12 0 8.985603884839 3 0 1 1 1
vector 6  ClosedQueueingNetwork.tandemQueue[1].queue[1]  queueLength:vector  ETV
attr interpolationmode sample-hold
attr title "queue length, vector"
6	3240 9 0 0 0 0 1 0 0 0 0
vector 7  ClosedQueueingNetwork.tandemQueue[1].queue[2]  queueLength:vector  ETV
attr interpolationmode sample-hold
attr title "queue length, vector"
7	3249 9 0 0 0 0 1 0 0 0 0
vector 8  ClosedQueueingNetwork.tandemQueue[1].queue[3]  queueLength:vector  ETV
attr interpolationmode sample-hold
attr title "queue length, vector"
8	3258 9 0 0 0 0 1 0 0 0 0
vector 9  ClosedQueueingNetwork.tandemQueue[1].queue[4]  queueLength:vector  ETV
attr interpolationmode sample-hold
attr title "queue length, vector"
9	3267 9 0 0 0 0 1 0 0 0 0
vector 10  ClosedQueueingNetwork.tandemQueue[2].queue[0]  queueLength:vector  ETV
attr interpolationmode sample-hold
attr title "queue length, vector"
10	3276 99 0 141 0 331.933709275685 5 0 1 2 2
vector 11  ClosedQueueingNetwork.tandemQueue[2].queue[1]  queueLength:vector  ETV
attr interpolationmode sample-hold
attr title "queue length, vector"
11	3375 62 0 91 0 190.012666079257 3 0 1 1 1
vector 12  ClosedQueueingNetwork.tandemQueue[2].queue[2]  queueLength:vector  ETV
attr interpolationmode sample-hold
attr title "queue length, vector"
12	3437 62 0 102 0 198.72101266393 3 0 1 1 1
vector 13  ClosedQueueingNetwork.tandemQueue[2].queue[3]  queueLength:vector  ETV
attr interpolationmode sample-hold
attr title "queue length, vector"
13	3499 91 0 158 0 348.051863985099 4 0 1 2 2
vector 14  ClosedQueueingNetwork.tandemQueue[2].queue[4]  queueLength:vector  ETV
attr interpolationmode sample-hold
attr title "queue length, vector"
14	3590 10 0 0 0 0 1 0 0 0 0
