version 2
run OneFifo-0-20120112-12:39:23-2992
attr configname OneFifo
attr datetime 20120112-12:39:23
attr experiment OneFifo
attr inifile omnetpp.ini
attr iterationvars ""
attr iterationvars2 $repetition=0
attr measurement ""
attr network SimpleQueue
attr processid 2992
attr repetition 0
attr replication #0
attr resultdir results
attr runnumber 0
attr seedset 0

vector 1  SimpleQueue.queue  queueLength:vector  ETV
attr interpolationmode  sample-hold
attr title  "queue length, vector"
vector 0  SimpleQueue.sink  lifeTime:vector  ETV
attr interpolationmode  none
attr title  "lifetime of arrived jobs, vector"
attr unit  s
0	6	4.103610525225	2.511861516094
0	8	5.950056788166	2.561187002068
0	12	8.68248049021	1.574402279963
0	16	12.113265855355	1.10209697334
0	22	16.845415591747	2.076318601327
0	26	17.996453985512	1.273344142306
0	32	22.443502829584	4.750136658935
0	34	23.080215111267	4.680530662343
0	36	24.047419321163	5.530965534053
0	42	28.284070582212	3.137792235246
0	44	29.789418808837	3.34424776537
0	50	31.468459149916	1.6788657058
0	58	36.664967321613	5.567608743055
0	62	36.847289373861	4.752186777272
0	64	36.888140550659	1.176299425521
0	66	37.806636825169	1.947424989101
0	70	41.381612152046	4.699244323493
0	72	44.39318066932	5.621587824151
0	78	49.152561218403	4.080628515883
0	86	56.843004956686	11.468610546837
0	90	58.080863875939	8.624685034267
0	96	61.113935823919	10.374338636891
0	102	63.664391228366	9.714314927215
0	104	63.973850589366	6.79577013843
0	108	65.5155199063	6.867510612985
0	110	68.358249266487	7.438362089752
0	112	69.833903849998	8.662267854387
0	114	70.057796171263	6.843296426954
1	0	0	0
1	4	3.388869786098	1
1	5	4.103610525225	0
1	20	16.723109843206	1
1	21	16.845415591747	0
1	24	17.693366170649	1
1	25	17.996453985512	0
1	28	18.399684448924	1
1	30	18.51645378711	2
1	31	22.443502829584	1
1	33	23.080215111267	0
1	40	26.445171043467	1
1	41	28.284070582212	0
1	48	31.097358578558	1
1	49	31.468459149916	0
1	52	32.095102596589	1
1	54	35.711841125138	2
1	56	35.859211836068	3
1	57	36.664967321613	2
1	60	36.682367828553	3
1	61	36.847289373861	2
1	63	36.888140550659	1
1	65	37.806636825169	0
1	68	38.771592845169	1
1	69	41.381612152046	0
1	76	45.374394409849	1
1	77	49.152561218403	0
1	80	49.456178841672	1
1	82	50.739597187028	2
1	84	53.950076301151	3
1	85	56.843004956686	2
1	88	57.178080450936	3
1	89	58.080863875939	2
1	92	58.648009293315	3
1	94	60.919887176735	4
1	95	61.113935823919	3
1	98	61.171635995611	4
1	100	63.214499744309	5
1	101	63.664391228366	4
1	103	63.973850589366	3
1	106	64.959142134393	4
1	107	65.5155199063	3
1	109	68.358249266487	2
1	111	69.833903849998	1
1	113	70.057796171263	0
1	116	70.747983090367	1
1	117	71.128927611718	0
