file 811 1328793831                                             
version 2
run SmallCQN-0-20120111-14:19:10-1140
attr configname SmallCQN
attr datetime 20120111-14:19:10
attr experiment SmallCQN
attr inifile omnetpp.ini
attr iterationvars ""
attr iterationvars2 $repetition=0
attr measurement ""
attr network SmallCQN
attr processid 1140
attr repetition 0
attr replication #0
attr resultdir results
attr runnumber 0
attr seedset 0
vector 0  SmallCQN.queue1  queueLength:vector  ETV
attr interpolationmode sample-hold
attr title "queue length, vector"
0	634 168 0 20 0 3 15 0 9 87 639
vector 1  SmallCQN.queue2  queueLength:vector  ETV
attr interpolationmode sample-hold
attr title "queue length, vector"
1	802 9 0 0 0 0 1 0 0 0 0
