version 2
run TandemFifos-0-20120111-14:19:59-2852
attr configname TandemFifos
attr datetime 20120111-14:19:59
attr experiment TandemFifos
attr inifile omnetpp.ini
attr iterationvars ""
attr iterationvars2 $repetition=0
attr measurement ""
attr network TandemQueue
attr processid 2852
attr repetition 0
attr replication #0
attr resultdir results
attr runnumber 0
attr seedset 0

vector 0  TandemQueue.queue  queueLength:vector  ETV
attr interpolationmode  sample-hold
attr title  "queue length, vector"
vector 1  TandemQueue.queue1  queueLength:vector  ETV
attr interpolationmode  sample-hold
attr title  "queue length, vector"
vector 2  TandemQueue.queue2  queueLength:vector  ETV
attr interpolationmode  sample-hold
attr title  "queue length, vector"
vector 3  TandemQueue.sink  lifeTime:vector  ETV
attr interpolationmode  none
attr title  "lifetime of arrived jobs, vector"
attr unit  s
0	0	0	0
0	4	3.388869786098	1
0	5	4.103610525225	0
0	14	8.68248049021	1
0	20	10.758799091537	2
0	21	10.866006318652	1
0	25	11.572324596927	0
0	64	25.282369620278	1
0	67	26.16001471799	0
0	72	28.857344947155	1
0	73	29.171583235264	0
0	78	32.937973463038	1
0	79	33.253367667087	0
0	84	36.148452577161	1
0	85	36.481371816872	0
0	90	37.386311496414	1
0	92	37.63806031529	2
0	93	37.951300659251	1
0	99	39.994164407949	0
0	102	40.188515719737	1
0	105	41.535833724883	0
0	162	57.417051320307	1
0	165	58.425003497198	0
0	184	66.961186682335	1
0	186	67.237244059191	2
0	187	67.375581327411	1
0	191	68.133505255976	0
0	204	71.169978060386	1
0	209	72.027071449106	0
0	230	82.892932814155	1
0	231	83.078686621971	0
0	236	83.453486831112	1
0	238	83.799741743404	2
0	240	84.624744203248	3
0	242	84.858655022832	4
0	243	85.032414770112	3
0	246	87.104991625898	4
0	247	87.168559164411	3
0	249	87.465983702915	2
0	252	87.868103312646	3
0	254	88.30586450566	4
0	259	90.47925436946	3
0	261	90.506583526321	2
0	263	90.71087328937	1
0	267	92.661077157682	0
0	274	94.280244289364	1
0	275	94.900705889189	0
1	0	0	0
1	8	5.950056788166	1
1	11	8.006701196993	0
1	26	11.572324596927	1
1	28	11.689093935113	2
1	32	12.546549766985	3
1	33	15.313055162724	2
1	35	16.28025937262	1
1	41	19.418051607866	0
1	44	19.8474271796	1
1	51	21.096917313666	0
1	80	33.253367667087	1
1	86	36.481371816872	2
1	87	36.862026973547	1
1	94	37.951300659251	2
1	97	39.895098921527	1
1	100	39.994164407949	2
1	106	41.535833724883	3
1	107	41.639741311611	2
1	111	43.115395895122	1
1	113	44.186527335577	0
1	116	44.37856308507	1
1	119	44.801088039882	0
1	126	46.465453657184	1
1	132	47.486077576661	2
1	133	47.777597691385	1
1	135	47.815534829787	0
1	144	49.37907479745	1
1	145	49.738296707918	0
1	176	64.18742170667	1
1	180	64.642430510831	2
1	188	67.375581327411	3
1	189	67.817646465021	2
1	192	68.133505255976	3
1	196	68.919730370584	4
1	197	69.689769584563	3
1	205	71.378625171618	2
1	210	72.027071449106	3
1	212	74.14272427581	4
1	213	77.764518455725	3
1	215	78.233121493276	2
1	217	78.584948584127	1
1	224	80.663132819272	2
1	232	83.078686621971	3
1	244	85.032414770112	4
1	248	87.168559164411	5
1	250	87.465983702915	6
1	255	89.305149284613	5
1	257	90.225177200093	4
1	260	90.47925436946	5
1	262	90.506583526321	6
1	264	90.71087328937	7
1	268	92.661077157682	8
1	269	93.665840515526	7
1	271	93.867910066143	6
1	276	94.900705889189	7
1	284	99.111348490773	8
1	285	101.015086810831	7
1	292	102.978200981814	8
2	0	0	0
2	16	9.108798170333	1
2	17	9.960714049779	0
2	36	16.28025937262	1
2	37	16.611947859225	0
2	42	19.418051607866	1
2	45	19.956370259874	0
2	54	21.244288024596	1
2	55	21.920073306151	0
2	70	26.462476425319	1
2	75	32.051313674299	0
2	114	44.186527335577	1
2	117	44.398785299184	0
2	120	44.801088039882	1
2	121	44.811191863244	0
2	136	47.815534829787	1
2	137	48.561139312738	0
2	216	78.233121493276	1
2	218	78.584948584127	2
2	219	79.780556946565	1
2	227	81.898042376753	0
2	258	90.225177200093	1
2	265	91.477688046369	0
2	270	93.665840515526	1
2	272	93.867910066143	2
2	277	95.117325884937	1
2	279	96.381999077728	0
3	18	9.960714049779	8.368965040648
3	24	10.930970377222	7.542100591124
3	38	16.611947859225	9.503869648978
3	46	19.956370259874	11.273889769664
3	50	20.954114277905	10.195315186368
3	56	21.920073306151	10.010235820849
3	58	22.102395358399	3.562733313241
3	76	32.051313674299	12.006303402516
3	82	33.334732019655	8.093213576175
3	96	39.133904856967	13.851535236689
3	104	40.204558282527	11.347213335372
3	110	41.863633632876	8.925660169838
3	118	44.398785299184	8.250332722023
3	122	44.811191863244	7.42488036683
3	130	47.481772232491	9.843711917201
3	138	48.561139312738	8.372623593001
3	142	48.885412291629	2.908055615918
3	148	50.715410806533	3.519889284456
3	154	53.947670572054	5.071479638753
3	164	57.772568003196	7.002383715546
3	170	58.75835652968	2.232342199475
3	194	68.72185058547	11.304799265163
3	200	69.768135897389	7.698382453694
3	208	71.59389538793	7.326317009134
3	220	79.780556946565	13.291783676395
3	228	81.898042376753	14.936855694418
3	234	83.185604379958	15.948360320767
3	266	91.477688046369	21.462358607596
3	278	95.117325884937	23.947347824551
3	280	96.381999077728	16.30302732499
3	282	97.807166264394	15.984362804405
3	288	101.129740663678	18.236807849523
