                                                                
version 2
run Fifo1-0-20120214-14:44:49-32434
attr configname Fifo1
attr datetime 20120214-14:44:49
attr experiment Fifo1
attr inifile omnetpp.ini
attr iterationvars ""
attr iterationvars2 $repetition=0
attr measurement ""
attr network FifoNet
attr processid 32434
attr repetition 0
attr replication #0
attr resultdir results
attr runnumber 0
attr seedset 0

vector 0  FifoNet.fifo  qlen:vector  ETV
attr interpolationmode  sample-hold
attr title  "queue length, vector"
vector 1  FifoNet.fifo  queueingTime:vector  ETV
attr interpolationmode  none
attr title  "queueing time at dequeue, vector"
attr unit  s
vector 2  FifoNet.sink  lifetime:vector  ETV
attr interpolationmode  none
attr title  "lifetime of arrived jobs, vector"
attr unit  s
