version 2
run FifoWRS-0-20120216-15:00:38-22374
attr configname FifoWRS
attr datetime 20120216-15:00:38
attr experiment FifoWRS
attr inifile omnetpp.ini
attr iterationvars ""
attr iterationvars2 $repetition=0
attr measurement ""
attr network FifoNetWRS
attr processid 22374
attr repetition 0
attr replication #0
attr resultdir results
attr runnumber 0
attr seedset 0

vector 8  FifoNetWRS.wrSi.wrQueue0  queueLength:vector  ETV
attr interpolationmode  sample-hold
attr title  "queue length, vector"
vector 9  FifoNetWRS.wrSi.wrQueue1  queueLength:vector  ETV
attr interpolationmode  sample-hold
attr title  "queue length, vector"
vector 10  FifoNetWRS.wrSi.wrQueue2  queueLength:vector  ETV
attr interpolationmode  sample-hold
attr title  "queue length, vector"
vector 11  FifoNetWRS.wrSi.wrQueue3  queueLength:vector  ETV
attr interpolationmode  sample-hold
attr title  "queue length, vector"
vector 12  FifoNetWRS.wrSi.wrQueue4  queueLength:vector  ETV
attr interpolationmode  sample-hold
attr title  "queue length, vector"
vector 13  FifoNetWRS.wrSi.wrQueue5  queueLength:vector  ETV
attr interpolationmode  sample-hold
attr title  "queue length, vector"
vector 14  FifoNetWRS.wrSi.wrQueue6  queueLength:vector  ETV
attr interpolationmode  sample-hold
attr title  "queue length, vector"
vector 15  FifoNetWRS.wrSi.wrQueue7  queueLength:vector  ETV
attr interpolationmode  sample-hold
attr title  "queue length, vector"
vector 7  FifoNetWRS.sink7  lifetime:vector  ETV
attr interpolationmode  none
attr title  "lifetime of arrived jobs, vector"
attr unit  s
vector 2  FifoNetWRS.sink2  lifetime:vector  ETV
attr interpolationmode  none
attr title  "lifetime of arrived jobs, vector"
attr unit  s
vector 6  FifoNetWRS.sink6  lifetime:vector  ETV
attr interpolationmode  none
attr title  "lifetime of arrived jobs, vector"
attr unit  s
vector 1  FifoNetWRS.sink1  lifetime:vector  ETV
attr interpolationmode  none
attr title  "lifetime of arrived jobs, vector"
attr unit  s
vector 3  FifoNetWRS.sink3  lifetime:vector  ETV
attr interpolationmode  none
attr title  "lifetime of arrived jobs, vector"
attr unit  s
vector 5  FifoNetWRS.sink5  lifetime:vector  ETV
attr interpolationmode  none
attr title  "lifetime of arrived jobs, vector"
attr unit  s
vector 4  FifoNetWRS.sink4  lifetime:vector  ETV
attr interpolationmode  none
attr title  "lifetime of arrived jobs, vector"
attr unit  s
vector 0  FifoNetWRS.sink  lifetime:vector  ETV
attr interpolationmode  none
attr title  "lifetime of arrived jobs, vector"
attr unit  s
0	141	0.002	0
0	188	0.003	0
0	329	0.006	0
0	332	0.006	0
0	377	0.007	0
0	378	0.007	0
0	380	0.007	0
0	432	0.008	0
0	761	0.015	0
0	861	0.017	0
0	863	0.017	0
0	953	0.019	0
0	956	0.019	0
0	957	0.019	0
0	1003	0.02	0
0	1050	0.021	0
0	1052	0.021	0
0	1053	0.021	0
0	1146	0.023	0
0	1195	0.024	0
0	1290	0.026	0
0	1339	0.027	0
0	1388	0.028	0
0	1436	0.029	0
0	1488	0.03	0
0	1626	0.033	0
0	1630	0.033	0
0	1631	0.033	0
0	1722	0.035	0
0	1771	0.036	0
0	1966	0.04	0
0	2062	0.042	0
0	2063	0.042	0
0	2108	0.043	0
0	2254	0.046	0
0	2298	0.047	0
0	2301	0.047	0
0	2348	0.048	0
0	2349	0.048	0
0	2395	0.049	0
0	2396	0.049	0
0	2441	0.05	0
0	2537	0.052	0
0	2538	0.052	0
0	2590	0.053	0
0	2639	0.054	0
0	2732	0.056	0
0	2826	0.058	0
0	2878	0.059	0
0	2879	0.059	0
0	2925	0.06	0
0	2926	0.06	0
0	3306	0.068	0
0	3311	0.068	0
0	3354	0.069	0
0	3403	0.07	0
0	3451	0.071	0
0	3452	0.071	0
0	3696	0.076	0
0	3743	0.077	0
0	3787	0.078	0
0	3789	0.078	0
0	3930	0.081	0
0	3984	0.082	0
0	4026	0.083	0
0	4030	0.083	0
0	4032	0.083	0
0	4121	0.085	0
0	4127	0.085	0
0	4176	0.086	0
0	4268	0.088	0
0	4269	0.088	0
0	4314	0.089	0
0	4317	0.089	0
0	4414	0.091	0
0	4511	0.093	0
0	4601	0.095	0
0	4651	0.096	0
0	4652	0.096	0
0	4653	0.096	0
0	4700	0.097	0
0	4704	0.097	0
0	4745	0.098	0
0	4749	0.098	0
0	4796	0.099	0
0	4841	0.1	0
0	4844	0.1	0
0	4848	0.1	0
0	4894	0.101	0
0	4985	0.103	0
0	4989	0.103	0
0	5038	0.104	0
0	5039	0.104	0
0	5087	0.105	0
0	5131	0.106	0
0	5177	0.107	0
0	5178	0.107	0
0	5182	0.107	0
0	5276	0.109	0
0	5370	0.111	0
0	5422	0.112	0
0	5424	0.112	0
0	5566	0.115	0
0	5612	0.116	0
0	5660	0.117	0
0	5664	0.117	0
0	5712	0.118	0
0	5853	0.121	0
0	5900	0.122	0
0	5903	0.122	0
0	6046	0.125	0
0	6138	0.127	0
0	6139	0.127	0
0	6234	0.129	0
0	6237	0.129	0
0	6288	0.13	0
0	6329	0.131	0
0	6330	0.131	0
0	6333	0.131	0
0	6379	0.132	0
0	6429	0.133	0
0	6476	0.134	0
0	6522	0.135	0
0	6526	0.135	0
0	6572	0.136	0
0	6623	0.137	0
0	6667	0.138	0
0	6714	0.139	0
0	6717	0.139	0
0	6810	0.141	0
0	6911	0.143	0
0	7008	0.145	0
0	7055	0.146	0
0	7149	0.148	0
0	7296	0.151	0
0	7340	0.152	0
0	7390	0.153	0
0	7483	0.155	0
0	7484	0.155	0
0	7536	0.156	0
0	7630	0.158	0
0	7631	0.158	0
0	7674	0.159	0
0	7676	0.159	0
0	7725	0.16	0
0	7774	0.161	0
0	7776	0.161	0
0	7817	0.162	0
0	7871	0.163	0
0	7965	0.165	0
0	7968	0.165	0
0	8009	0.166	0
0	8011	0.166	0
0	8013	0.166	0
0	8110	0.168	0
0	8153	0.169	0
0	8154	0.169	0
0	8156	0.169	0
0	8160	0.169	0
0	8250	0.171	0
0	8255	0.171	0
0	8349	0.173	0
0	8393	0.174	0
0	8397	0.174	0
0	8398	0.174	0
0	8441	0.175	0
0	8445	0.175	0
0	8496	0.176	0
0	8543	0.177	0
0	8729	0.181	0
0	8730	0.181	0
0	8781	0.182	0
0	8782	0.182	0
0	8783	0.182	0
0	8825	0.183	0
0	8826	0.183	0
0	8876	0.184	0
0	8879	0.184	0
0	8927	0.185	0
0	9018	0.187	0
0	9020	0.187	0
0	9163	0.19	0
0	9264	0.192	0
0	9306	0.193	0
0	9359	0.194	0
0	9404	0.195	0
0	9452	0.196	0
0	9455	0.196	0
0	9503	0.197	0
0	9545	0.198	0
0	9546	0.198	0
0	9548	0.198	0
0	9552	0.198	0
0	9595	0.199	0
0	9644	0.2	0
0	9740	0.202	0
0	9742	0.202	0
0	9743	0.202	0
0	9840	0.204	0
0	9932	0.206	0
0	10026	0.208	0
0	10027	0.208	0
0	10077	0.209	0
0	10169	0.211	0
0	10173	0.211	0
0	10221	0.212	0
0	10267	0.213	0
0	10361	0.215	0
0	10362	0.215	0
0	10366	0.215	0
0	10415	0.216	0
0	10457	0.217	0
0	10458	0.217	0
0	10505	0.218	0
0	10555	0.219	0
0	10651	0.221	0
0	10655	0.221	0
0	10700	0.222	0
0	10703	0.222	0
0	10747	0.223	0
0	10845	0.225	0
0	10989	0.228	0
0	11035	0.229	0
0	11036	0.229	0
0	11083	0.23	0
0	11084	0.23	0
0	11181	0.232	0
0	11227	0.233	0
0	11228	0.233	0
0	11273	0.234	0
0	11278	0.234	0
0	11279	0.234	0
0	11325	0.235	0
0	11371	0.236	0
0	11421	0.237	0
0	11472	0.238	0
0	11513	0.239	0
0	11520	0.239	0
0	11614	0.241	0
0	11658	0.242	0
0	11662	0.242	0
0	11754	0.244	0
0	11760	0.244	0
0	11802	0.245	0
0	11805	0.245	0
0	11806	0.245	0
0	11950	0.248	0
0	12041	0.25	0
0	12044	0.25	0
0	12048	0.25	0
0	12089	0.251	0
0	12093	0.251	0
0	12142	0.252	0
0	12143	0.252	0
0	12187	0.253	0
0	12188	0.253	0
0	12236	0.254	0
0	12240	0.254	0
0	12330	0.256	0
0	12377	0.257	0
0	12384	0.257	0
0	12432	0.258	0
0	12473	0.259	0
0	12480	0.259	0
0	12622	0.262	0
0	12715	0.264	0
0	12761	0.265	0
0	12762	0.265	0
0	12763	0.265	0
0	12814	0.266	0
0	12860	0.267	0
0	12910	0.268	0
0	13100	0.272	0
0	13145	0.273	0
0	13146	0.273	0
0	13340	0.277	0
0	13344	0.277	0
0	13390	0.278	0
0	13435	0.279	0
0	13487	0.28	0
0	13532	0.281	0
0	13535	0.281	0
0	13580	0.282	0
0	13675	0.284	0
0	13818	0.287	0
0	13915	0.289	0
0	13967	0.29	0
0	14012	0.291	0
0	14058	0.292	0
0	14063	0.292	0
0	14109	0.293	0
0	14250	0.296	0
0	14251	0.296	0
0	14252	0.296	0
0	14541	0.302	0
0	14587	0.303	0
0	14633	0.304	0
0	14683	0.305	0
0	14783	0.307	0
0	14784	0.307	0
0	14921	0.31	0
0	14927	0.31	0
0	14928	0.31	0
0	14969	0.311	0
0	14972	0.311	0
0	14975	0.311	0
0	15019	0.312	0
0	15024	0.312	0
0	15114	0.314	0
0	15118	0.314	0
0	15167	0.315	0
0	15258	0.317	0
0	15354	0.319	0
0	15355	0.319	0
0	15358	0.319	0
0	15405	0.32	0
0	15503	0.322	0
0	15545	0.323	0
0	15548	0.323	0
0	15593	0.324	0
0	15694	0.326	0
0	15743	0.327	0
0	15789	0.328	0
0	15881	0.33	0
0	15886	0.33	0
0	15931	0.331	0
0	15932	0.331	0
0	15934	0.331	0
0	16029	0.333	0
0	16032	0.333	0
0	16121	0.335	0
0	16126	0.335	0
0	16170	0.336	0
0	16175	0.336	0
0	16220	0.337	0
0	16224	0.337	0
0	16268	0.338	0
0	16270	0.338	0
0	16317	0.339	0
0	16365	0.34	0
0	16368	0.34	0
0	16458	0.342	0
0	16464	0.342	0
0	16506	0.343	0
0	16603	0.345	0
0	16608	0.345	0
0	16652	0.346	0
0	16698	0.347	0
0	16793	0.349	0
0	16893	0.351	0
0	16895	0.351	0
0	16937	0.352	0
0	16944	0.352	0
0	16987	0.353	0
0	16990	0.353	0
0	17034	0.354	0
0	17040	0.354	0
0	17082	0.355	0
0	17085	0.355	0
0	17088	0.355	0
0	17182	0.357	0
0	17184	0.357	0
0	17226	0.358	0
0	17372	0.361	0
0	17421	0.362	0
0	17422	0.362	0
0	17467	0.363	0
0	17469	0.363	0
0	17518	0.364	0
0	17567	0.365	0
0	17708	0.368	0
0	17709	0.368	0
0	17758	0.369	0
0	17805	0.37	0
0	17849	0.371	0
0	17852	0.371	0
0	18041	0.375	0
0	18042	0.375	0
0	18044	0.375	0
0	18095	0.376	0
0	18144	0.377	0
0	18188	0.378	0
0	18239	0.379	0
0	18281	0.38	0
0	18336	0.381	0
0	18379	0.382	0
0	18380	0.382	0
0	18427	0.383	0
0	18430	0.383	0
0	18526	0.385	0
0	18528	0.385	0
0	18571	0.386	0
0	18575	0.386	0
0	18618	0.387	0
0	18672	0.388	0
0	18713	0.389	0
0	18812	0.391	0
0	18862	0.392	0
0	18909	0.393	0
0	18910	0.393	0
0	18957	0.394	0
0	19051	0.396	0
0	19097	0.397	0
0	19100	0.397	0
0	19200	0.399	0
0	19247	0.4	0
0	19343	0.402	0
0	19387	0.403	0
0	19434	0.404	0
0	19435	0.404	0
0	19436	0.404	0
0	19438	0.404	0
0	19440	0.404	0
0	19531	0.406	0
0	19534	0.406	0
0	19535	0.406	0
0	19577	0.407	0
0	19578	0.407	0
0	19630	0.408	0
0	19728	0.41	0
0	19771	0.411	0
0	19817	0.412	0
0	19822	0.412	0
0	19913	0.414	0
0	19914	0.414	0
0	19919	0.414	0
0	19920	0.414	0
0	19961	0.415	0
0	19962	0.415	0
0	20057	0.417	0
0	20109	0.418	0
0	20112	0.418	0
0	20154	0.419	0
0	20155	0.419	0
0	20156	0.419	0
0	20299	0.422	0
0	20496	0.426	0
0	20587	0.428	0
0	20590	0.428	0
0	20682	0.43	0
0	20684	0.43	0
0	20685	0.43	0
0	20687	0.43	0
0	20779	0.432	0
0	20876	0.434	0
0	20924	0.435	0
0	20928	0.435	0
0	21162	0.44	0
0	21163	0.44	0
0	21257	0.442	0
0	21259	0.442	0
0	21262	0.442	0
0	21306	0.443	0
0	21312	0.443	0
0	21357	0.444	0
0	21358	0.444	0
0	21360	0.444	0
0	21403	0.445	0
0	21452	0.446	0
0	21502	0.447	0
0	21644	0.45	0
0	21646	0.45	0
0	21648	0.45	0
0	21689	0.451	0
0	21694	0.451	0
0	21696	0.451	0
0	21790	0.453	0
0	21838	0.454	0
0	21977	0.457	0
0	22032	0.458	0
0	22074	0.459	0
0	22127	0.46	0
0	22169	0.461	0
0	22173	0.461	0
0	22222	0.462	0
0	22268	0.463	0
0	22362	0.465	0
0	22409	0.466	0
0	22410	0.466	0
0	22413	0.466	0
0	22458	0.467	0
0	22506	0.468	0
0	22511	0.468	0
0	22553	0.469	0
0	22605	0.47	0
0	22656	0.471	0
0	22700	0.472	0
0	22701	0.472	0
0	22703	0.472	0
0	22745	0.473	0
0	22750	0.473	0
0	22752	0.473	0
0	22795	0.474	0
0	22892	0.476	0
0	22893	0.476	0
0	22896	0.476	0
0	22937	0.477	0
0	23036	0.479	0
0	23038	0.479	0
0	23472	0.488	0
0	23519	0.489	0
0	23561	0.49	0
0	23610	0.491	0
0	23616	0.491	0
0	23664	0.492	0
0	23706	0.493	0
0	23755	0.494	0
0	23897	0.497	0
0	24043	0.5	0
0	24092	0.501	0
0	24094	0.501	0
0	24143	0.502	0
0	24237	0.504	0
0	24240	0.504	0
0	24286	0.505	0
0	24336	0.506	0
0	24377	0.507	0
0	24384	0.507	0
0	24524	0.51	0
0	24527	0.51	0
0	24572	0.511	0
0	24575	0.511	0
0	24619	0.512	0
0	24621	0.512	0
0	24714	0.514	0
0	24814	0.516	0
0	24816	0.516	0
0	24859	0.517	0
0	24861	0.517	0
0	24911	0.518	0
0	24959	0.519	0
0	25100	0.522	0
0	25289	0.526	0
0	25292	0.526	0
0	25438	0.529	0
0	25486	0.53	0
0	25531	0.531	0
0	25536	0.531	0
0	25680	0.534	0
0	25725	0.535	0
0	25726	0.535	0
0	25769	0.536	0
0	25819	0.537	0
0	25968	0.54	0
0	26013	0.541	0
0	26057	0.542	0
0	26153	0.544	0
0	26156	0.544	0
0	26159	0.544	0
0	26160	0.544	0
0	26202	0.545	0
0	26207	0.545	0
0	26250	0.546	0
0	26299	0.547	0
0	26445	0.55	0
0	26490	0.551	0
0	26538	0.552	0
0	26683	0.555	0
0	26687	0.555	0
0	26735	0.556	0
0	26784	0.557	0
0	26826	0.558	0
0	26830	0.558	0
0	26927	0.56	0
0	27017	0.562	0
0	27018	0.562	0
0	27065	0.563	0
0	27120	0.564	0
0	27161	0.565	0
0	27210	0.566	0
0	27257	0.567	0
0	27264	0.567	0
0	27305	0.568	0
0	27353	0.569	0
0	27355	0.569	0
0	27405	0.57	0
0	27408	0.57	0
0	27451	0.571	0
0	27456	0.571	0
0	27737	0.577	0
0	27741	0.577	0
0	27839	0.579	0
0	27881	0.58	0
0	27977	0.582	0
0	27983	0.582	0
0	28026	0.583	0
0	28121	0.585	0
0	28173	0.586	0
0	28265	0.588	0
0	28269	0.588	0
0	28271	0.588	0
0	28272	0.588	0
0	28320	0.589	0
0	28463	0.592	0
0	28507	0.593	0
0	28510	0.593	0
0	28601	0.595	0
0	28608	0.595	0
0	28654	0.596	0
0	28656	0.596	0
0	28704	0.597	0
0	28797	0.599	0
0	28843	0.6	0
0	28891	0.601	0
0	28893	0.601	0
0	28896	0.601	0
0	28940	0.602	0
0	28944	0.602	0
0	28985	0.603	0
0	29035	0.604	0
0	29087	0.605	0
0	29182	0.607	0
0	29231	0.608	0
0	29232	0.608	0
0	29275	0.609	0
0	29276	0.609	0
0	29278	0.609	0
0	29280	0.609	0
0	29326	0.61	0
0	29371	0.611	0
0	29373	0.611	0
0	29466	0.613	0
0	29469	0.613	0
0	29472	0.613	0
0	29516	0.614	0
0	29610	0.616	0
0	29755	0.619	0
0	29853	0.621	0
0	29945	0.623	0
0	29993	0.624	0
0	29999	0.624	0
0	30042	0.625	0
0	30046	0.625	0
0	30094	0.626	0
0	30239	0.629	0
0	30282	0.63	0
0	30285	0.63	0
0	30332	0.631	0
0	30336	0.631	0
0	30527	0.635	0
0	30576	0.636	0
0	30624	0.637	0
0	30813	0.641	0
0	30861	0.642	0
0	30911	0.643	0
0	30958	0.644	0
0	31054	0.646	0
0	31098	0.647	0
0	31102	0.647	0
0	31241	0.65	0
0	31244	0.65	0
0	31289	0.651	0
0	31291	0.651	0
0	31385	0.653	0
0	31531	0.656	0
0	31535	0.656	0
0	31577	0.657	0
0	31628	0.658	0
0	31630	0.658	0
0	31726	0.66	0
0	31817	0.662	0
0	31819	0.662	0
0	31822	0.662	0
0	31871	0.663	0
0	31914	0.664	0
0	31917	0.664	0
0	32011	0.666	0
0	32061	0.667	0
0	32155	0.669	0
0	32159	0.669	0
0	32253	0.671	0
0	32254	0.671	0
0	32256	0.671	0
0	32304	0.672	0
0	32345	0.673	0
0	32441	0.675	0
0	32489	0.676	0
0	32585	0.678	0
0	32591	0.678	0
0	32638	0.679	0
0	32685	0.68	0
0	32688	0.68	0
0	32729	0.681	0
0	32734	0.681	0
0	32779	0.682	0
0	32781	0.682	0
0	32826	0.683	0
0	32829	0.683	0
0	32831	0.683	0
0	32877	0.684	0
0	32878	0.684	0
0	33017	0.687	0
0	33071	0.688	0
0	33113	0.689	0
0	33117	0.689	0
0	33216	0.691	0
0	33310	0.693	0
0	33354	0.694	0
0	33451	0.696	0
0	33546	0.698	0
0	33596	0.699	0
0	33597	0.699	0
0	33645	0.7	0
0	33694	0.701	0
0	33737	0.702	0
0	33786	0.703	0
0	33790	0.703	0
0	33792	0.703	0
0	33882	0.705	0
0	33886	0.705	0
0	33930	0.706	0
0	33932	0.706	0
0	33933	0.706	0
0	33979	0.707	0
0	34026	0.708	0
0	34028	0.708	0
0	34076	0.709	0
0	34123	0.71	0
0	34169	0.711	0
0	34170	0.711	0
0	34313	0.714	0
0	34364	0.715	0
0	34365	0.715	0
0	34464	0.717	0
0	34505	0.718	0
0	34560	0.719	0
0	34601	0.72	0
0	34651	0.721	0
0	34697	0.722	0
0	34748	0.723	0
0	34749	0.723	0
0	34752	0.723	0
0	34841	0.725	0
0	34843	0.725	0
0	34846	0.725	0
0	34937	0.727	0
0	34938	0.727	0
0	34940	0.727	0
0	34990	0.728	0
0	35040	0.729	0
0	35181	0.732	0
0	35280	0.734	0
0	35325	0.735	0
0	35419	0.737	0
0	35465	0.738	0
0	35466	0.738	0
0	35660	0.742	0
0	35661	0.742	0
0	35662	0.742	0
0	35758	0.744	0
0	35760	0.744	0
0	35856	0.746	0
0	35898	0.747	0
0	35899	0.747	0
0	35900	0.747	0
0	35952	0.748	0
0	35993	0.749	0
0	36047	0.75	0
0	36048	0.75	0
0	36090	0.751	0
0	36138	0.752	0
0	36187	0.753	0
0	36190	0.753	0
0	36191	0.753	0
0	36237	0.754	0
0	36286	0.755	0
0	36287	0.755	0
0	36335	0.756	0
0	36377	0.757	0
0	36380	0.757	0
0	36426	0.758	0
0	36432	0.758	0
0	36476	0.759	0
0	36576	0.761	0
0	36622	0.762	0
0	36667	0.763	0
0	36670	0.763	0
0	36765	0.765	0
0	36860	0.767	0
0	36910	0.768	0
0	37008	0.77	0
0	37051	0.771	0
0	37099	0.772	0
0	37149	0.773	0
0	37241	0.775	0
0	37244	0.775	0
0	37292	0.776	0
0	37485	0.78	0
0	37486	0.78	0
0	37577	0.782	0
0	37578	0.782	0
0	37584	0.782	0
0	37680	0.784	0
0	37724	0.785	0
0	37770	0.786	0
0	37819	0.787	0
0	37866	0.788	0
0	37913	0.789	0
0	37914	0.789	0
0	37962	0.79	0
0	37968	0.79	0
0	38010	0.791	0
0	38014	0.791	0
0	38015	0.791	0
0	38058	0.792	0
0	38062	0.792	0
0	38107	0.793	0
0	38158	0.794	0
0	38201	0.795	0
0	38203	0.795	0
0	38205	0.795	0
0	38251	0.796	0
0	38300	0.797	0
0	38347	0.798	0
0	38399	0.799	0
0	38448	0.8	0
0	38491	0.801	0
0	38538	0.802	0
0	38589	0.803	0
0	38591	0.803	0
0	38635	0.804	0
0	38732	0.806	0
0	38778	0.807	0
0	38924	0.81	0
0	38927	0.81	0
0	39022	0.812	0
0	39066	0.813	0
0	39113	0.814	0
0	39257	0.817	0
0	39306	0.818	0
0	39312	0.818	0
0	39403	0.82	0
0	39453	0.821	0
0	39455	0.821	0
0	39546	0.823	0
0	39552	0.823	0
0	39692	0.826	0
0	39694	0.826	0
0	39737	0.827	0
0	39742	0.827	0
0	39835	0.829	0
0	39882	0.83	0
0	39886	0.83	0
0	40025	0.833	0
0	40127	0.835	0
0	40128	0.835	0
0	40170	0.836	0
0	40314	0.839	0
0	40315	0.839	0
0	40320	0.839	0
0	40367	0.84	0
0	40412	0.841	0
0	40458	0.842	0
0	40459	0.842	0
0	40510	0.843	0
0	40556	0.844	0
0	40557	0.844	0
0	40605	0.845	0
0	40697	0.847	0
0	40745	0.848	0
0	40749	0.848	0
0	40800	0.849	0
0	40985	0.853	0
0	40987	0.853	0
0	41081	0.855	0
0	41085	0.855	0
0	41129	0.856	0
0	41177	0.857	0
0	41226	0.858	0
0	41228	0.858	0
0	41327	0.86	0
0	41417	0.862	0
0	41513	0.864	0
0	41520	0.864	0
0	41709	0.868	0
0	41803	0.87	0
0	41805	0.87	0
0	41849	0.871	0
0	41856	0.871	0
0	41995	0.874	0
0	42041	0.875	0
0	42090	0.876	0
0	42093	0.876	0
0	42192	0.878	0
0	42238	0.879	0
0	42285	0.88	0
0	42336	0.881	0
0	42384	0.882	0
0	42432	0.883	0
0	42522	0.885	0
0	42571	0.886	0
0	42573	0.886	0
0	42670	0.888	0
0	42713	0.889	0
0	42718	0.889	0
0	42768	0.89	0
0	42812	0.891	0
0	42857	0.892	0
0	42960	0.894	0
0	43003	0.895	0
0	43005	0.895	0
0	43008	0.895	0
0	43052	0.896	0
0	43055	0.896	0
0	43150	0.898	0
0	43241	0.9	0
0	43243	0.9	0
0	43246	0.9	0
0	43342	0.902	0
0	43531	0.906	0
0	43535	0.906	0
0	43817	0.912	0
0	43821	0.912	0
0	43824	0.912	0
0	43868	0.913	0
0	43869	0.913	0
0	43871	0.913	0
0	43916	0.914	0
0	44063	0.917	0
0	44064	0.917	0
0	44109	0.918	0
0	44253	0.921	0
0	44255	0.921	0
0	44256	0.921	0
0	44348	0.923	0
0	44394	0.924	0
0	44395	0.924	0
0	44491	0.926	0
0	44496	0.926	0
0	44537	0.927	0
0	44538	0.927	0
0	44541	0.927	0
0	44637	0.929	0
0	44640	0.929	0
0	44780	0.932	0
0	44825	0.933	0
0	44878	0.934	0
0	44880	0.934	0
0	44969	0.936	0
0	44970	0.936	0
0	44976	0.936	0
0	45066	0.938	0
0	45069	0.938	0
0	45165	0.94	0
0	45211	0.941	0
0	45213	0.941	0
0	45261	0.942	0
0	45306	0.943	0
0	45401	0.945	0
0	45404	0.945	0
0	45451	0.946	0
0	45594	0.949	0
0	45599	0.949	0
0	45642	0.95	0
0	45689	0.951	0
0	45738	0.952	0
0	45743	0.952	0
0	45882	0.955	0
0	45978	0.957	0
0	45980	0.957	0
0	46029	0.958	0
0	46030	0.958	0
0	46073	0.959	0
0	46075	0.959	0
0	46123	0.96	0
0	46224	0.962	0
0	46265	0.963	0
0	46271	0.963	0
0	46361	0.965	0
0	46363	0.965	0
0	46364	0.965	0
0	46368	0.965	0
0	46410	0.966	0
0	46416	0.966	0
0	46505	0.968	0
0	46655	0.971	0
0	46701	0.972	0
0	46893	0.976	0
0	46894	0.976	0
0	46942	0.977	0
0	46988	0.978	0
0	46990	0.978	0
0	47036	0.979	0
0	47038	0.979	0
0	47039	0.979	0
0	47087	0.98	0
0	47129	0.981	0
0	47177	0.982	0
0	47178	0.982	0
0	47181	0.982	0
0	47280	0.984	0
0	47327	0.985	0
0	47518	0.989	0
0	47567	0.99	0
0	47664	0.992	0
0	47712	0.993	0
0	47756	0.994	0
0	47806	0.995	0
0	47897	0.997	0
0	47997	0.999	0
0	48042	1	0
0	48045	1	0
0	48048	1	0
0	48096	1.001	0
0	48144	1.002	0
0	48186	1.003	0
0	48190	1.003	0
0	48233	1.004	0
0	48236	1.004	0
0	48334	1.006	0
0	48335	1.006	0
0	48377	1.007	0
0	48430	1.008	0
0	48479	1.009	0
0	48569	1.011	0
0	48571	1.011	0
0	48574	1.011	0
0	48671	1.013	0
0	48766	1.015	0
0	48906	1.018	0
0	48954	1.019	0
0	48959	1.019	0
0	49001	1.02	0
0	49104	1.022	0
0	49150	1.023	0
0	49247	1.025	0
0	49390	1.028	0
0	49434	1.029	0
0	49530	1.031	0
0	49629	1.033	0
0	49675	1.034	0
0	49819	1.037	0
0	49821	1.037	0
0	49871	1.038	0
0	49918	1.039	0
0	50014	1.041	0
0	50060	1.042	0
0	50160	1.044	0
0	50204	1.045	0
0	50250	1.046	0
0	50301	1.047	0
0	50303	1.047	0
0	50349	1.048	0
0	50492	1.051	0
0	50540	1.052	0
0	50544	1.052	0
0	50591	1.053	0
0	50592	1.053	0
0	50635	1.054	0
0	50729	1.056	0
0	50781	1.057	0
0	50783	1.057	0
0	50826	1.058	0
0	50832	1.058	0
0	50873	1.059	0
0	50877	1.059	0
0	50878	1.059	0
0	50880	1.059	0
0	51113	1.064	0
0	51165	1.065	0
0	51167	1.065	0
0	51209	1.066	0
0	51211	1.066	0
0	51215	1.066	0
0	51306	1.068	0
0	51311	1.068	0
0	51406	1.07	0
0	51449	1.071	0
0	51454	1.071	0
0	51497	1.072	0
0	51501	1.072	0
0	51503	1.072	0
0	51548	1.073	0
0	51643	1.075	0
0	51693	1.076	0
0	51790	1.078	0
0	51837	1.079	0
0	51930	1.081	0
0	51979	1.082	0
0	51980	1.082	0
0	51984	1.082	0
0	52031	1.083	0
0	52075	1.084	0
0	52127	1.085	0
0	52170	1.086	0
0	52176	1.086	0
0	52271	1.088	0
0	52316	1.089	0
0	52365	1.09	0
0	52367	1.09	0
0	52607	1.095	0
0	52799	1.099	0
0	52841	1.1	0
0	52938	1.102	0
0	52939	1.102	0
0	52943	1.102	0
0	52944	1.102	0
0	53081	1.105	0
0	53086	1.105	0
0	53129	1.106	0
0	53181	1.107	0
0	53183	1.107	0
0	53226	1.108	0
0	53227	1.108	0
0	53274	1.109	0
0	53322	1.11	0
0	53326	1.11	0
0	53372	1.111	0
0	53373	1.111	0
0	53417	1.112	0
0	53424	1.112	0
0	53465	1.113	0
0	53467	1.113	0
0	53514	1.114	0
0	53520	1.114	0
0	53563	1.115	0
0	53706	1.118	0
0	53753	1.119	0
0	53755	1.119	0
0	53760	1.119	0
0	53807	1.12	0
0	53851	1.121	0
0	53900	1.122	0
0	53951	1.123	0
0	53995	1.124	0
0	54041	1.125	0
0	54089	1.126	0
0	54090	1.126	0
0	54143	1.127	0
0	54187	1.128	0
0	54329	1.131	0
0	54330	1.131	0
0	54332	1.131	0
0	54426	1.133	0
0	54430	1.133	0
0	54474	1.134	0
0	54524	1.135	0
0	54527	1.135	0
0	54528	1.135	0
0	54571	1.136	0
0	54572	1.136	0
0	54621	1.137	0
0	54622	1.137	0
0	54715	1.139	0
0	54718	1.139	0
0	54768	1.14	0
0	54814	1.141	0
0	54909	1.143	0
0	55003	1.145	0
0	55053	1.146	0
0	55099	1.147	0
0	55146	1.148	0
0	55193	1.149	0
0	55197	1.149	0
0	55247	1.15	0
0	55342	1.152	0
0	55343	1.152	0
0	55344	1.152	0
0	55433	1.154	0
0	55529	1.156	0
0	55533	1.156	0
0	55535	1.156	0
0	55630	1.158	0
0	55631	1.158	0
0	55679	1.159	0
0	55722	1.16	0
0	55775	1.161	0
0	55819	1.162	0
0	55866	1.163	0
0	55869	1.163	0
0	55917	1.164	0
0	55967	1.165	0
0	56110	1.168	0
0	56111	1.168	0
0	56160	1.169	0
0	56208	1.17	0
0	56249	1.171	0
0	56251	1.171	0
0	56253	1.171	0
0	56255	1.171	0
0	56349	1.173	0
0	56394	1.174	0
0	56395	1.174	0
0	56444	1.175	0
0	56496	1.176	0
0	56589	1.178	0
0	56590	1.178	0
0	56592	1.178	0
0	56635	1.179	0
0	56636	1.179	0
0	56688	1.18	0
0	56729	1.181	0
0	56730	1.181	0
0	56731	1.181	0
0	56736	1.181	0
0	56826	1.183	0
0	56827	1.183	0
0	56831	1.183	0
0	56928	1.185	0
0	57070	1.188	0
0	57116	1.189	0
0	57119	1.189	0
0	57162	1.19	0
0	57166	1.19	0
0	57212	1.191	0
0	57264	1.192	0
0	57311	1.193	0
0	57355	1.194	0
0	57359	1.194	0
0	57453	1.196	0
0	57500	1.197	0
0	57549	1.198	0
0	57551	1.198	0
0	57596	1.199	0
0	57599	1.199	0
0	57737	1.202	0
0	57786	1.203	0
0	57833	1.204	0
0	57835	1.204	0
0	57840	1.204	0
0	57881	1.205	0
0	57885	1.205	0
0	57934	1.206	0
0	57977	1.207	0
0	57979	1.207	0
0	58073	1.209	0
0	58123	1.21	0
0	58220	1.212	0
0	58271	1.213	0
0	58362	1.215	0
0	58368	1.215	0
0	58411	1.216	0
0	58654	1.221	0
0	58796	1.224	0
0	58889	1.226	0
0	59034	1.229	0
0	59082	1.23	0
0	59087	1.23	0
0	59135	1.231	0
0	59179	1.232	0
0	59183	1.232	0
0	59230	1.233	0
0	59273	1.234	0
0	59274	1.234	0
0	59418	1.237	0
0	59421	1.237	0
0	59422	1.237	0
0	59466	1.238	0
0	59468	1.238	0
0	59472	1.238	0
0	59518	1.239	0
0	59565	1.24	0
0	59616	1.241	0
0	59663	1.242	0
0	59709	1.243	0
0	59802	1.245	0
0	59849	1.246	0
0	60041	1.25	0
0	60093	1.251	0
0	60141	1.252	0
0	60142	1.252	0
0	60237	1.254	0
0	60285	1.255	0
0	60329	1.256	0
0	60330	1.256	0
0	60331	1.256	0
0	60332	1.256	0
0	60333	1.256	0
0	60382	1.257	0
0	60477	1.259	0
0	60479	1.259	0
0	60480	1.259	0
0	60522	1.26	0
0	60524	1.26	0
0	60525	1.26	0
0	60526	1.26	0
0	60571	1.261	0
0	60617	1.262	0
0	60621	1.262	0
0	60720	1.264	0
0	60763	1.265	0
0	60812	1.266	0
0	60813	1.266	0
0	60814	1.266	0
0	60864	1.267	0
0	60911	1.268	0
0	60958	1.269	0
0	61005	1.27	0
0	61008	1.27	0
0	61149	1.273	0
0	61195	1.274	0
0	61242	1.275	0
0	61293	1.276	0
0	61295	1.276	0
0	61339	1.277	0
0	61392	1.278	0
0	61434	1.279	0
0	61485	1.28	0
0	61535	1.281	0
0	61536	1.281	0
0	61577	1.282	0
0	61675	1.284	0
0	61722	1.285	0
0	61769	1.286	0
0	61824	1.287	0
0	62016	1.291	0
0	62109	1.293	0
0	62153	1.294	0
0	62299	1.297	0
0	62346	1.298	0
0	62349	1.298	0
0	62398	1.299	0
0	62400	1.299	0
0	62445	1.3	0
0	62495	1.301	0
0	62588	1.303	0
0	62634	1.304	0
0	62683	1.305	0
0	62736	1.306	0
0	62873	1.309	0
0	62877	1.309	0
0	63162	1.315	0
0	63163	1.315	0
0	63258	1.317	0
0	63357	1.319	0
0	63456	1.321	0
0	63498	1.322	0
0	63503	1.322	0
0	63550	1.323	0
0	63595	1.324	0
0	63598	1.324	0
0	63691	1.326	0
0	63694	1.326	0
0	63834	1.329	0
0	63836	1.329	0
0	63839	1.329	0
0	63886	1.33	0
0	64080	1.334	0
0	64124	1.335	0
0	64175	1.336	0
0	64314	1.339	0
0	64361	1.34	0
0	64554	1.344	0
0	64560	1.344	0
0	64650	1.346	0
0	64655	1.346	0
0	64699	1.347	0
0	64703	1.347	0
0	64704	1.347	0
0	64796	1.349	0
0	64800	1.349	0
0	64842	1.35	0
0	64892	1.351	0
0	64988	1.353	0
0	64989	1.353	0
0	64992	1.353	0
0	65040	1.354	0
0	65083	1.355	0
0	65088	1.355	0
0	65183	1.357	0
0	65321	1.36	0
0	65324	1.36	0
0	65369	1.361	0
0	65373	1.361	0
0	65375	1.361	0
0	65466	1.363	0
0	65513	1.364	0
0	65514	1.364	0
0	65610	1.366	0
0	65659	1.367	0
0	65708	1.368	0
0	65808	1.37	0
0	65897	1.372	0
0	65903	1.372	0
0	65904	1.372	0
0	66045	1.375	0
0	66046	1.375	0
0	66139	1.377	0
0	66142	1.377	0
0	66143	1.377	0
0	66190	1.378	0
0	66238	1.379	0
0	66239	1.379	0
0	66286	1.38	0
0	66329	1.381	0
0	66330	1.381	0
0	66331	1.381	0
0	66380	1.382	0
0	66384	1.382	0
0	66572	1.386	0
0	66621	1.387	0
0	66669	1.388	0
0	66763	1.39	0
0	66863	1.392	0
0	66906	1.393	0
0	66957	1.394	0
0	67006	1.395	0
0	67008	1.395	0
0	67052	1.396	0
0	67098	1.397	0
0	67104	1.397	0
0	67145	1.398	0
0	67148	1.398	0
0	67152	1.398	0
0	67290	1.401	0
0	67338	1.402	0
0	67342	1.402	0
0	67433	1.404	0
0	67485	1.405	0
0	67531	1.406	0
0	67535	1.406	0
0	67577	1.407	0
0	67721	1.41	0
0	67770	1.411	0
0	67775	1.411	0
0	67823	1.412	0
0	67866	1.413	0
0	67868	1.413	0
0	67870	1.413	0
0	67872	1.413	0
0	67916	1.414	0
0	67968	1.415	0
0	68015	1.416	0
0	68059	1.417	0
0	68108	1.418	0
0	68109	1.418	0
0	68155	1.419	0
0	68159	1.419	0
0	68160	1.419	0
0	68206	1.42	0
0	68256	1.421	0
0	68397	1.424	0
0	68398	1.424	0
0	68448	1.425	0
0	68490	1.426	0
0	68538	1.427	0
0	68540	1.427	0
0	68782	1.432	0
0	68784	1.432	0
0	68876	1.434	0
0	68877	1.434	0
0	69022	1.437	0
0	69163	1.44	0
0	69211	1.441	0
0	69216	1.441	0
0	69257	1.442	0
0	69259	1.442	0
0	69260	1.442	0
0	69264	1.442	0
0	69307	1.443	0
0	69353	1.444	0
0	69401	1.445	0
0	69405	1.445	0
0	69453	1.446	0
0	69497	1.447	0
0	69501	1.447	0
0	69504	1.447	0
0	69594	1.449	0
0	69595	1.449	0
0	69641	1.45	0
0	69834	1.454	0
0	69835	1.454	0
0	69839	1.454	0
0	69935	1.456	0
0	69977	1.457	0
0	70030	1.458	0
0	70073	1.459	0
0	70175	1.461	0
0	70217	1.462	0
0	70218	1.462	0
0	70223	1.462	0
0	70319	1.464	0
0	70367	1.465	0
0	70511	1.468	0
0	70603	1.47	0
0	70605	1.47	0
0	70608	1.47	0
0	70649	1.471	0
0	70655	1.471	0
0	70701	1.472	0
0	70702	1.472	0
0	70749	1.473	0
0	70750	1.473	0
0	70796	1.474	0
0	70797	1.474	0
0	70799	1.474	0
0	70800	1.474	0
0	70847	1.475	0
0	70848	1.475	0
0	70889	1.476	0
0	70895	1.476	0
0	71034	1.479	0
0	71087	1.48	0
0	71129	1.481	0
0	71131	1.481	0
0	71133	1.481	0
0	71178	1.482	0
0	71273	1.484	0
0	71275	1.484	0
0	71278	1.484	0
0	71279	1.484	0
0	71322	1.485	0
0	71563	1.49	0
0	71566	1.49	0
0	71611	1.491	0
0	71658	1.492	0
0	71663	1.492	0
0	71804	1.495	0
0	71851	1.496	0
0	71948	1.498	0
0	71995	1.499	0
0	72090	1.501	0
0	72142	1.502	0
0	72188	1.503	0
0	72282	1.505	0
0	72283	1.505	0
0	72285	1.505	0
0	72379	1.507	0
0	72430	1.508	0
0	72431	1.508	0
0	72521	1.51	0
0	72571	1.511	0
0	72572	1.511	0
0	72619	1.512	0
0	72622	1.512	0
0	72714	1.514	0
0	72767	1.515	0
0	72810	1.516	0
0	72861	1.517	0
0	72910	1.518	0
0	72912	1.518	0
0	72960	1.519	0
0	73007	1.52	0
0	73196	1.524	0
0	73246	1.525	0
0	73296	1.526	0
0	73390	1.528	0
0	73439	1.529	0
0	73440	1.529	0
0	73530	1.531	0
0	73577	1.532	0
0	73581	1.532	0
0	73630	1.533	0
0	73726	1.535	0
0	73769	1.536	0
0	73772	1.536	0
0	73773	1.536	0
0	73817	1.537	0
0	73865	1.538	0
0	73867	1.538	0
0	73916	1.539	0
0	73963	1.54	0
0	73968	1.54	0
0	74010	1.541	0
0	74059	1.542	0
0	74061	1.542	0
0	74108	1.543	0
0	74111	1.543	0
0	74154	1.544	0
0	74202	1.545	0
0	74208	1.545	0
0	74253	1.546	0
0	74352	1.548	0
0	74494	1.551	0
0	74589	1.553	0
0	74590	1.553	0
0	74633	1.554	0
0	74688	1.555	0
0	74777	1.557	0
0	74779	1.557	0
0	74780	1.557	0
0	74827	1.558	0
0	74828	1.558	0
0	74970	1.561	0
0	75065	1.563	0
0	75113	1.564	0
0	75114	1.564	0
0	75164	1.565	0
0	75167	1.565	0
0	75210	1.566	0
0	75260	1.567	0
0	75261	1.567	0
0	75263	1.567	0
0	75264	1.567	0
0	75308	1.568	0
0	75547	1.573	0
0	75597	1.574	0
0	75691	1.576	0
0	75884	1.58	0
0	75886	1.58	0
0	75932	1.581	0
0	75936	1.581	0
0	76028	1.583	0
0	76029	1.583	0
0	76079	1.584	0
0	76125	1.585	0
0	76170	1.586	0
0	76172	1.586	0
0	76362	1.59	0
0	76510	1.593	0
0	76554	1.594	0
0	76701	1.597	0
0	76745	1.598	0
0	76746	1.598	0
0	76747	1.598	0
0	76795	1.599	0
0	76797	1.599	0
0	76798	1.599	0
0	76847	1.6	0
0	76939	1.602	0
0	76944	1.602	0
0	76991	1.603	0
0	77033	1.604	0
0	77085	1.605	0
0	77086	1.605	0
0	77133	1.606	0
0	77177	1.607	0
0	77369	1.611	0
0	77370	1.611	0
0	77376	1.611	0
0	77468	1.613	0
0	77472	1.613	0
0	77565	1.615	0
0	77568	1.615	0
0	77659	1.617	0
0	77707	1.618	0
0	77757	1.619	0
0	77806	1.62	0
0	77852	1.621	0
0	77897	1.622	0
0	77900	1.622	0
0	77949	1.623	0
0	78089	1.626	0
0	78096	1.626	0
0	78187	1.628	0
0	78233	1.629	0
0	78240	1.629	0
0	78281	1.63	0
0	78286	1.63	0
0	78287	1.63	0
0	78336	1.631	0
0	78377	1.632	0
0	78425	1.633	0
0	78428	1.633	0
0	78431	1.633	0
0	78473	1.634	0
0	78522	1.635	0
0	78571	1.636	0
0	78666	1.638	0
0	78671	1.638	0
0	78716	1.639	0
0	78718	1.639	0
0	78765	1.64	0
0	78766	1.64	0
0	78815	1.641	0
0	78910	1.643	0
0	79003	1.645	0
0	79006	1.645	0
0	79054	1.646	0
0	79102	1.647	0
0	79103	1.647	0
0	79104	1.647	0
0	79149	1.648	0
0	79150	1.648	0
0	79197	1.649	0
0	79241	1.65	0
0	79344	1.652	0
0	79436	1.654	0
0	79579	1.657	0
0	79584	1.657	0
0	79627	1.658	0
0	79722	1.66	0
0	79822	1.662	0
0	79824	1.662	0
0	79871	1.663	0
0	79872	1.663	0
0	79962	1.665	0
0	79965	1.665	0
0	79967	1.665	0
0	80154	1.669	0
0	80159	1.669	0
0	80160	1.669	0
0	80208	1.67	0
0	80254	1.671	0
0	80256	1.671	0
0	80352	1.673	0
0	80441	1.675	0
0	80496	1.676	0
0	80542	1.677	0
0	80588	1.678	0
0	80590	1.678	0
0	80681	1.68	0
0	80685	1.68	0
0	80730	1.681	0
0	80731	1.681	0
0	80733	1.681	0
0	80778	1.682	0
0	80781	1.682	0
0	80825	1.683	0
0	80827	1.683	0
0	80875	1.684	0
0	80927	1.685	0
0	80928	1.685	0
0	80976	1.686	0
0	81021	1.687	0
0	81071	1.688	0
0	81113	1.689	0
0	81114	1.689	0
0	81161	1.69	0
0	81164	1.69	0
0	81167	1.69	0
0	81216	1.691	0
0	81260	1.692	0
0	81404	1.695	0
0	81497	1.697	0
0	81502	1.697	0
0	81643	1.7	0
0	81645	1.7	0
0	81691	1.701	0
0	81740	1.702	0
0	81742	1.702	0
0	81785	1.703	0
0	81836	1.704	0
0	81934	1.706	0
0	82026	1.708	0
0	82032	1.708	0
0	82123	1.71	0
0	82176	1.711	0
0	82224	1.712	0
0	82367	1.715	0
0	82409	1.716	0
0	82416	1.716	0
0	82457	1.717	0
0	82508	1.718	0
0	82556	1.719	0
0	82560	1.719	0
0	82604	1.72	0
0	82649	1.721	0
0	82651	1.721	0
0	82745	1.723	0
0	82748	1.723	0
0	82793	1.724	0