version 2
run General-0-20120214-13:58:29-30573
attr configname General
attr datetime 20120214-13:58:29
attr experiment General
attr inifile omnetpp.ini
attr iterationvars ""
attr iterationvars2 $repetition=0
attr measurement ""
attr network FifoNet
attr processid 30573
attr repetition 0
attr replication #0
attr resultdir results
attr runnumber 0
attr seedset 0

vector 0  FifoNet.fifo  qlen:vector  ETV
attr interpolationmode  sample-hold
attr title  "queue length, vector"
vector 1  FifoNet.fifo  queueingTime:vector  ETV
attr interpolationmode  none
attr title  "queueing time at dequeue, vector"
attr unit  s
0	0	0	0
0	4	0	1
0	6	0	2
0	8	0	3
0	10	0	4
0	12	0	5
0	14	0	6
0	16	0	7
0	18	0	8
0	20	0	9
0	22	0	10
0	24	0	11
0	26	0	12
0	28	0	13
0	30	0	14
0	32	0	15
0	34	0	16
0	36	0	17
0	38	0	18
0	40	0	19
0	42	0	20
0	44	0	21
0	46	0	22
0	48	0	23
0	50	0	24
0	52	0	25
0	54	0	26
0	56	0	27
0	58	0	28
0	60	0	29
0	62	0	30
0	64	0	31
0	66	0	32
0	68	0	33
0	70	0	34
0	72	0	35
0	74	0	36
0	76	0	37
1	2	0	0
